LAMMPS (7 Feb 2024 - Development - patch_7Feb2024-18-gc6a8f1fe58)
units real
atom_style full
bond_style harmonic
angle_style harmonic
dihedral_style opls
improper_style cvff
pair_style lj/cut/coul/long 11.0 11.0
pair_modify mix geometric
special_bonds lj/coul 0 0 0.5
kspace_style pppm 0.0001
read_data polymer_builder.data
Reading data file ...
  orthogonal box = (0 0 0) to (5.6409 5.6409 5.6409)
  1 by 1 by 1 MPI processor grid
  reading atoms ...
  9 atoms
  scanning bonds ...
  2 = max bonds/atom
  scanning angles ...
  1 = max angles/atom
  reading bonds ...
  6 bonds
  reading angles ...
  3 angles
Finding 1-2 1-3 1-4 neighbors ...
  special bond factors lj:    0        0        0.5     
  special bond factors coul:  0        0        0.5     
     2 = max # of 1-2 neighbors
     1 = max # of 1-3 neighbors
     1 = max # of 1-4 neighbors
     2 = max # of special neighbors
  special bonds CPU = 0.000 seconds
  read_data CPU = 0.003 seconds

timestep 1
thermo_modify flush yes
thermo 1000
dump 1 all custom 1000 dump.custom.gz id xu yu zu
dump_modify 1 sort id
min_style fire
minimize 1.0e-6 1.0e-8 1000000 10000000
PPPM initialization ...
  using 12-bit tables for long-range coulomb (src/kspace.cpp:342)
  G vector (1/distance) = 0.26989726
  grid = 4 4 4
  stencil order = 5
  estimated absolute RMS force accuracy = 0.0032772766
  estimated relative force accuracy = 9.869421e-06
  using double precision FFTW3
  3d grid and FFT values/proc = 1331 64
Generated 1 of 1 mixed pair_coeff terms from geometric mixing rule
Neighbor list info ...
  update: every = 1 steps, delay = 0 steps, check = yes
  max neighbors/atom: 2000, page size: 100000
  master list distance cutoff = 13
  ghost atom cutoff = 13
  binsize = 6.5, bins = 1 1 1
  1 neighbor lists, perpetual/occasional/extra = 1 0 0
  (1) pair lj/cut/coul/long, perpetual
      attributes: half, newton on
      pair build: half/bin/newton
      stencil: half/bin/3d
      bin: standard
  Parameters for fire:
    dmax  delaystep dtgrow dtshrink alpha0 alphashrink tmax tmin   integrator   halfstepback   abcfire  
     0.1     20      1.1     0.5     0.25     0.99      10  0.02 eulerimplicit      yes          no     
Per MPI rank memory allocation (min/avg/max) = 6.985 | 6.985 | 6.985 Mbytes
   Step          Temp          E_pair         E_mol          TotEng         Press     
         0   0              6.25025        3.6180914      9.8683414      10836.196    
       834   0.029133702   -32.074547      2.4031876     -29.670665     -7491.0767    
Loop time of 0.0551506 on 1 procs for 834 steps with 9 atoms

98.6% CPU use with 1 MPI tasks x no OpenMP threads

Minimization stats:
  Stopping criterion = energy tolerance
  Energy initial, next-to-last, final = 
      9.86834140494432  -29.6713327728351  -29.6713598039537
  Force two-norm initial, final = 61.05706 0.12095457
  Force max component initial, final = 26.874464 0.070664138
  Final line search alpha, max atom move = 0 0
  Iterations, force evaluations = 834 878

MPI task timing breakdown:
Section |  min time  |  avg time  |  max time  |%varavg| %total
---------------------------------------------------------------
Pair    | 0.037683   | 0.037683   | 0.037683   |   0.0 | 68.33
Bond    | 0.00046239 | 0.00046239 | 0.00046239 |   0.0 |  0.84
Kspace  | 0.010334   | 0.010334   | 0.010334   |   0.0 | 18.74
Neigh   | 9.2763e-05 | 9.2763e-05 | 9.2763e-05 |   0.0 |  0.17
Comm    | 0.0053127  | 0.0053127  | 0.0053127  |   0.0 |  9.63
Output  | 0          | 0          | 0          |   0.0 |  0.00
Modify  | 0          | 0          | 0          |   0.0 |  0.00
Other   |            | 0.001266   |            |       |  2.30

Nlocal:              9 ave           9 max           9 min
Histogram: 1 0 0 0 0 0 0 0 0 0
Nghost:           1689 ave        1689 max        1689 min
Histogram: 1 0 0 0 0 0 0 0 0 0
Neighs:           2116 ave        2116 max        2116 min
Histogram: 1 0 0 0 0 0 0 0 0 0

Total # of neighbors = 2116
Ave neighs/atom = 235.11111
Ave special neighs/atom = 2
Neighbor list builds = 1
Dangerous builds = 0

fix rigid all shake 0.0001 10 10000  b 1 a 1
Finding SHAKE clusters ...
       0 = # of size 2 clusters
       0 = # of size 3 clusters
       0 = # of size 4 clusters
       3 = # of frozen angles
  find clusters CPU = 0.000 seconds
velocity all create 10 981041
fix 1a all temp/berendsen 10 10 100
fix 1b all nve
run 1000
PPPM initialization ...
  using 12-bit tables for long-range coulomb (src/kspace.cpp:342)
  G vector (1/distance) = 0.26989726
  grid = 4 4 4
  stencil order = 5
  estimated absolute RMS force accuracy = 0.0032772766
  estimated relative force accuracy = 9.869421e-06
  using double precision FFTW3
  3d grid and FFT values/proc = 1331 64
Generated 1 of 1 mixed pair_coeff terms from geometric mixing rule
SHAKE stats (type/ave/delta/count) on step 834
Bond:   1   0.970471  0.0159539          6
Angle:  1   97.0597   1.99864            3
Per MPI rank memory allocation (min/avg/max) = 9.112 | 9.112 | 9.112 Mbytes
   Step          Temp          E_pair         E_mol          TotEng         Press     
       834   10            -32.074547      0             -31.925507     -1800.3958    
      1000   7.3294815     -27.274278      0             -27.165039     -5849.3623    
      1834   7.5459035     -27.27879       0             -27.166325     -6112.0645    
Loop time of 0.0485874 on 1 procs for 1000 steps with 9 atoms

Performance: 1778.241 ns/day, 0.013 hours/ns, 20581.488 timesteps/s, 185.233 katom-step/s
98.5% CPU use with 1 MPI tasks x no OpenMP threads

MPI task timing breakdown:
Section |  min time  |  avg time  |  max time  |%varavg| %total
---------------------------------------------------------------
Pair    | 0.024087   | 0.024087   | 0.024087   |   0.0 | 49.58
Bond    | 0.00014601 | 0.00014601 | 0.00014601 |   0.0 |  0.30
Kspace  | 0.012015   | 0.012015   | 0.012015   |   0.0 | 24.73
Neigh   | 0          | 0          | 0          |   0.0 |  0.00
Comm    | 0.0060274  | 0.0060274  | 0.0060274  |   0.0 | 12.41
Output  | 0.00010284 | 0.00010284 | 0.00010284 |   0.0 |  0.21
Modify  | 0.0052056  | 0.0052056  | 0.0052056  |   0.0 | 10.71
Other   |            | 0.001003   |            |       |  2.06

Nlocal:              9 ave           9 max           9 min
Histogram: 1 0 0 0 0 0 0 0 0 0
Nghost:           1659 ave        1659 max        1659 min
Histogram: 1 0 0 0 0 0 0 0 0 0
Neighs:           2116 ave        2116 max        2116 min
Histogram: 1 0 0 0 0 0 0 0 0 0

Total # of neighbors = 2116
Ave neighs/atom = 235.11111
Ave special neighs/atom = 2
Neighbor list builds = 0
Dangerous builds = 0
unfix 1b
unfix 1a

fix 2a all temp/berendsen 10 300 100
fix 2b all nve
run 10000
PPPM initialization ...
  using 12-bit tables for long-range coulomb (src/kspace.cpp:342)
  G vector (1/distance) = 0.26989726
  grid = 4 4 4
  stencil order = 5
  estimated absolute RMS force accuracy = 0.0032772766
  estimated relative force accuracy = 9.869421e-06
  using double precision FFTW3
  3d grid and FFT values/proc = 1331 64
Generated 1 of 1 mixed pair_coeff terms from geometric mixing rule
SHAKE stats (type/ave/delta/count) on step 1834
Bond:   1   0.9572    2.97506e-07        6
Angle:  1   104.52    2.9838e-05         3
Per MPI rank memory allocation (min/avg/max) = 9.112 | 9.112 | 9.112 Mbytes
   Step          Temp          E_pair         E_mol          TotEng         Press     
      1834   7.5459035     -27.27879       0             -27.166325     -6111.9278    
      2000   10.356091     -27.235818      0             -27.08147      -6123.9106    
      3000   25.966963     -26.634879      0             -26.247866     -5202.5107    
      4000   42.325724     -26.125611      0             -25.494786     -6090.8609    
      5000   117.13966     -26.246404      0             -24.500549     -6448.5785    
      6000   142.3301      -25.673074      0             -23.551779     -4103.9442    
      7000   150.85407     -25.071635      0             -22.823299     -3615.6721    
      8000   153.27762     -24.144469      0             -21.860012     -3702.9525    
      9000   208.13281     -23.616528      0             -20.514506     -4840.9281    
SHAKE stats (type/ave/delta/count) on step 10000
Bond:   1   0.9572    7.81597e-07        6
Angle:  1   104.52    9.04275e-05        3
     10000   317.02171     -24.093734      0             -19.368826     -3153.1528    
     11000   270.18416     -22.53205       0             -18.505211     -5076.8724    
     11834   304.40999     -22.943459      0             -18.406517      300.00913    
Loop time of 0.500944 on 1 procs for 10000 steps with 9 atoms

Performance: 1724.744 ns/day, 0.014 hours/ns, 19962.317 timesteps/s, 179.661 katom-step/s
97.1% CPU use with 1 MPI tasks x no OpenMP threads

MPI task timing breakdown:
Section |  min time  |  avg time  |  max time  |%varavg| %total
---------------------------------------------------------------
Pair    | 0.24342    | 0.24342    | 0.24342    |   0.0 | 48.59
Bond    | 0.0013796  | 0.0013796  | 0.0013796  |   0.0 |  0.28
Kspace  | 0.1178     | 0.1178     | 0.1178     |   0.0 | 23.51
Neigh   | 0.0032181  | 0.0032181  | 0.0032181  |   0.0 |  0.64
Comm    | 0.061848   | 0.061848   | 0.061848   |   0.0 | 12.35
Output  | 0.010355   | 0.010355   | 0.010355   |   0.0 |  2.07
Modify  | 0.052791   | 0.052791   | 0.052791   |   0.0 | 10.54
Other   |            | 0.01013    |            |       |  2.02

Nlocal:              9 ave           9 max           9 min
Histogram: 1 0 0 0 0 0 0 0 0 0
Nghost:           1629 ave        1629 max        1629 min
Histogram: 1 0 0 0 0 0 0 0 0 0
Neighs:           2095 ave        2095 max        2095 min
Histogram: 1 0 0 0 0 0 0 0 0 0

Total # of neighbors = 2095
Ave neighs/atom = 232.77778
Ave special neighs/atom = 2
Neighbor list builds = 48
Dangerous builds = 0
unfix 2b
unfix 2a

dump_modify 1 every 10000

variable vol equal vol
variable amp equal 0.01*v_vol^(1/3)
variable immed_press python getPress
python getPress input 1 press_vol.data return v_immed_press format sf here "from nemd.lmpfunc import getPress"

variable immed_modulus python getModulus
python getModulus input 2 press_vol.data 100 return v_immed_modulus format sif here "from nemd.lmpfunc import getModulus"

variable factor python getBdryFactor
python getBdryFactor input 2 1 press_vol.data return v_factor format fsf here "from nemd.lmpfunc import getBdryFactor"

variable defm_id loop 0 99 pad
label defm_start
print "defm_id = ${defm_id}"
defm_id = 00
shell mkdir defm_${defm_id}
shell mkdir defm_00
shell cd defm_${defm_id}
shell cd defm_00

fix 15a all ave/time 1 25 25 c_thermo_press v_vol file press_vol.data
fix 15b all deform 100 x wiggle ${amp} 2500 y wiggle ${amp} 2500 z wiggle ${amp} 2500
fix 15b all deform 100 x wiggle 0.056409 2500 y wiggle ${amp} 2500 z wiggle ${amp} 2500
fix 15b all deform 100 x wiggle 0.056409 2500 y wiggle 0.056409 2500 z wiggle ${amp} 2500
fix 15b all deform 100 x wiggle 0.056409 2500 y wiggle 0.056409 2500 z wiggle 0.056409 2500
fix 15c all temp/berendsen 300 300 100
fix 15d all nve
run 7500
PPPM initialization ...
  using 12-bit tables for long-range coulomb (src/kspace.cpp:342)
  G vector (1/distance) = 0.26989726
  grid = 4 4 4
  stencil order = 5
  estimated absolute RMS force accuracy = 0.0032772766
  estimated relative force accuracy = 9.869421e-06
  using double precision FFTW3
  3d grid and FFT values/proc = 1331 64
Generated 1 of 1 mixed pair_coeff terms from geometric mixing rule
SHAKE stats (type/ave/delta/count) on step 11834
Bond:   1   0.9572    1.74001e-07        6
Angle:  1   104.52    1.36692e-05        3
Per MPI rank memory allocation (min/avg/max) = 9.112 | 9.112 | 9.112 Mbytes
   Step          Temp          E_pair         E_mol          TotEng         Press          Volume    
     11834   304.40999     -22.943459      0             -18.406517      300.3624       179.49204    
     12000   358.63299     -23.919342      0             -18.574258     -3845.6795      181.68283    
     13000   422.543       -22.720763      0             -16.423161     -3663.0746      180.62279    
     14000   236.32454     -20.401206      0             -16.879013     -5747.763       175.51411    
     15000   420.75413     -23.182896      0             -16.911956     -5678.1934      184.9017     
     16000   261.36562     -22.209432      0             -18.314026     -886.49709      174.87341    
     17000   262.1111      -21.520932      0             -17.614415     -2548.0742      181.68283    
     18000   301.5472      -21.612336      0             -17.118061     -3994.5702      180.62279    
     19000   400.02129     -25.09372       0             -19.131783     -2067.9997      175.51411    
     19334   212.86014     -21.228407      0             -18.055929     -6016.5545      179.03286    
Loop time of 0.421204 on 1 procs for 7500 steps with 9 atoms

Performance: 1538.448 ns/day, 0.016 hours/ns, 17806.113 timesteps/s, 160.255 katom-step/s
98.6% CPU use with 1 MPI tasks x no OpenMP threads

MPI task timing breakdown:
Section |  min time  |  avg time  |  max time  |%varavg| %total
---------------------------------------------------------------
Pair    | 0.2178     | 0.2178     | 0.2178     |   0.0 | 51.71
Bond    | 0.002036   | 0.002036   | 0.002036   |   0.0 |  0.48
Kspace  | 0.090688   | 0.090688   | 0.090688   |   0.0 | 21.53
Neigh   | 0.0069952  | 0.0069952  | 0.0069952  |   0.0 |  1.66
Comm    | 0.044179   | 0.044179   | 0.044179   |   0.0 | 10.49
Output  | 0.00030122 | 0.00030122 | 0.00030122 |   0.0 |  0.07
Modify  | 0.051529   | 0.051529   | 0.051529   |   0.0 | 12.23
Other   |            | 0.007681   |            |       |  1.82

Nlocal:              9 ave           9 max           9 min
Histogram: 1 0 0 0 0 0 0 0 0 0
Nghost:           1634 ave        1634 max        1634 min
Histogram: 1 0 0 0 0 0 0 0 0 0
Neighs:           2111 ave        2111 max        2111 min
Histogram: 1 0 0 0 0 0 0 0 0 0

Total # of neighbors = 2111
Ave neighs/atom = 234.55556
Ave special neighs/atom = 2
Neighbor list builds = 113
Dangerous builds = 0
unfix 15d
unfix 15c
unfix 15b
unfix 15a

print "immed_press = ${immed_press}"
immed_press = -2937.64618394649
print "immed_modulus = ${immed_modulus}"
immed_modulus = 67468.3215132748
print "factor = ${factor}"
factor = 0.992332886548374
if "${defm_id} == 99 || ${factor} == 1" then "jump SELF defm_break"

fix 21a all deform 100 x scale ${factor} y scale ${factor} z scale ${factor} remap v
fix 21a all deform 100 x scale 0.992332886548374 y scale ${factor} z scale ${factor} remap v
fix 21a all deform 100 x scale 0.992332886548374 y scale 0.992332886548374 z scale ${factor} remap v
fix 21a all deform 100 x scale 0.992332886548374 y scale 0.992332886548374 z scale 0.992332886548374 remap v
fix 21b all temp/berendsen 300 300 100
fix 21c all nve
run 1250
PPPM initialization ...
  using 12-bit tables for long-range coulomb (src/kspace.cpp:342)
  G vector (1/distance) = 0.26995615
  grid = 4 4 4
  stencil order = 5
  estimated absolute RMS force accuracy = 0.0032688763
  estimated relative force accuracy = 9.844124e-06
  using double precision FFTW3
  3d grid and FFT values/proc = 1331 64
Generated 1 of 1 mixed pair_coeff terms from geometric mixing rule
SHAKE stats (type/ave/delta/count) on step 19334
Bond:   1   0.957201  1.63303e-06        6
Angle:  1   104.52    0.000219068        3
Per MPI rank memory allocation (min/avg/max) = 9.112 | 9.112 | 9.112 Mbytes
   Step          Temp          E_pair         E_mol          TotEng         Press          Volume    
     19334   212.83517     -21.228404      0             -18.056298     -6004.7578      179.03286    
SHAKE stats (type/ave/delta/count) on step 20000
Bond:   1   0.957201  9.29076e-07        6
Angle:  1   104.52    0.000153809        3
     20000   260.1632      -21.381361      0             -17.503876     -4146.9484      176.84774    
     20584   176.69791     -20.213475      0             -17.57996       897.06897      175.219      
Loop time of 0.0626006 on 1 procs for 1250 steps with 9 atoms

Performance: 1725.224 ns/day, 0.014 hours/ns, 19967.865 timesteps/s, 179.711 katom-step/s
240.6% CPU use with 1 MPI tasks x no OpenMP threads

MPI task timing breakdown:
Section |  min time  |  avg time  |  max time  |%varavg| %total
---------------------------------------------------------------
Pair    | 0.030645   | 0.030645   | 0.030645   |   0.0 | 48.95
Bond    | 0.00017058 | 0.00017058 | 0.00017058 |   0.0 |  0.27
Kspace  | 0.014781   | 0.014781   | 0.014781   |   0.0 | 23.61
Neigh   | 0.0011587  | 0.0011587  | 0.0011587  |   0.0 |  1.85
Comm    | 0.0077433  | 0.0077433  | 0.0077433  |   0.0 | 12.37
Output  | 9.3018e-05 | 9.3018e-05 | 9.3018e-05 |   0.0 |  0.15
Modify  | 0.0067276  | 0.0067276  | 0.0067276  |   0.0 | 10.75
Other   |            | 0.001282   |            |       |  2.05

Nlocal:              9 ave           9 max           9 min
Histogram: 1 0 0 0 0 0 0 0 0 0
Nghost:           1719 ave        1719 max        1719 min
Histogram: 1 0 0 0 0 0 0 0 0 0
Neighs:           2153 ave        2153 max        2153 min
Histogram: 1 0 0 0 0 0 0 0 0 0

Total # of neighbors = 2153
Ave neighs/atom = 239.22222
Ave special neighs/atom = 2
Neighbor list builds = 18
Dangerous builds = 0
unfix 21c
unfix 21b
unfix 21a

fix 22a all temp/berendsen 300 300 100
fix 22b all nve
run 1250
PPPM initialization ...
  using 12-bit tables for long-range coulomb (src/kspace.cpp:342)
  G vector (1/distance) = 0.27045063
  grid = 4 4 4
  stencil order = 5
  estimated absolute RMS force accuracy = 0.0031991184
  estimated relative force accuracy = 9.6340501e-06
  using double precision FFTW3
  3d grid and FFT values/proc = 1331 64
Generated 1 of 1 mixed pair_coeff terms from geometric mixing rule
SHAKE stats (type/ave/delta/count) on step 20584
Bond:   1   0.957201  1.59612e-06        6
Angle:  1   104.52    0.000198356        3
Per MPI rank memory allocation (min/avg/max) = 9.112 | 9.112 | 9.112 Mbytes
   Step          Temp          E_pair         E_mol          TotEng         Press     
     20584   176.69791     -20.213279      0             -17.579764      897.60496    
     21000   215.77924     -20.882211      0             -17.666226     -2.8982815    
     21834   348.18188     -23.161053      0             -17.971733      563.52062    
Loop time of 0.0642891 on 1 procs for 1250 steps with 9 atoms

Performance: 1679.911 ns/day, 0.014 hours/ns, 19443.412 timesteps/s, 174.991 katom-step/s
207.8% CPU use with 1 MPI tasks x no OpenMP threads

MPI task timing breakdown:
Section |  min time  |  avg time  |  max time  |%varavg| %total
---------------------------------------------------------------
Pair    | 0.031547   | 0.031547   | 0.031547   |   0.0 | 49.07
Bond    | 0.00017656 | 0.00017656 | 0.00017656 |   0.0 |  0.27
Kspace  | 0.014641   | 0.014641   | 0.014641   |   0.0 | 22.77
Neigh   | 0.0013115  | 0.0013115  | 0.0013115  |   0.0 |  2.04
Comm    | 0.0082415  | 0.0082415  | 0.0082415  |   0.0 | 12.82
Output  | 9.0061e-05 | 9.0061e-05 | 9.0061e-05 |   0.0 |  0.14
Modify  | 0.0069842  | 0.0069842  | 0.0069842  |   0.0 | 10.86
Other   |            | 0.001297   |            |       |  2.02

Nlocal:              9 ave           9 max           9 min
Histogram: 1 0 0 0 0 0 0 0 0 0
Nghost:           1755 ave        1755 max        1755 min
Histogram: 1 0 0 0 0 0 0 0 0 0
Neighs:           2169 ave        2169 max        2169 min
Histogram: 1 0 0 0 0 0 0 0 0 0

Total # of neighbors = 2169
Ave neighs/atom = 241
Ave special neighs/atom = 2
Neighbor list builds = 19
Dangerous builds = 0
unfix 22b
unfix 22a

shell cd ..
next defm_id
jump SELF defm_start
print "defm_id = ${defm_id}"
defm_id = 01
shell mkdir defm_${defm_id}
shell mkdir defm_01
shell cd defm_${defm_id}
shell cd defm_01

fix 15a all ave/time 1 25 25 c_thermo_press v_vol file press_vol.data
fix 15b all deform 100 x wiggle ${amp} 2500 y wiggle ${amp} 2500 z wiggle ${amp} 2500
fix 15b all deform 100 x wiggle 0.0559577701300383 2500 y wiggle ${amp} 2500 z wiggle ${amp} 2500
fix 15b all deform 100 x wiggle 0.0559577701300383 2500 y wiggle 0.0559577701300383 2500 z wiggle ${amp} 2500
fix 15b all deform 100 x wiggle 0.0559577701300383 2500 y wiggle 0.0559577701300383 2500 z wiggle 0.0559577701300383 2500
fix 15c all temp/berendsen 300 300 100
fix 15d all nve
run 7500
PPPM initialization ...
  using 12-bit tables for long-range coulomb (src/kspace.cpp:342)
  G vector (1/distance) = 0.27045063
  grid = 4 4 4
  stencil order = 5
  estimated absolute RMS force accuracy = 0.0031991184
  estimated relative force accuracy = 9.6340501e-06
  using double precision FFTW3
  3d grid and FFT values/proc = 1331 64
Generated 1 of 1 mixed pair_coeff terms from geometric mixing rule
SHAKE stats (type/ave/delta/count) on step 21834
Bond:   1   0.9572    1.07884e-06        6
Angle:  1   104.52    6.83429e-05        3
Per MPI rank memory allocation (min/avg/max) = 9.112 | 9.112 | 9.112 Mbytes
   Step          Temp          E_pair         E_mol          TotEng         Press          Volume    
     21834   348.18188     -23.161053      0             -17.971733      564.19599      175.219      
     22000   250.84525     -21.944344      0             -18.205734     -3002.4833      177.35763    
     23000   287.77125     -22.248665      0             -17.959707      129.17792      176.32283    
     24000   262.52719     -23.124883      0             -19.212165     -4395.5098      171.33577    
     25000   277.61806     -21.92876       0             -17.791127     -1418.7385      180.49987    
     26000   326.01635     -23.765673      0             -18.906709     -3020.0453      170.71032    
     27000   449.56757     -24.930405      0             -18.230028     -234.0351       177.35763    
     28000   116.37822     -19.256753      0             -17.522246     -3290.7217      176.32283    
     29000   209.28046     -21.866108      0             -18.746982      1817.6225      171.33577    
     29334   325.53272     -23.114326      0             -18.26257      -5086.599       174.77075    
Loop time of 0.436001 on 1 procs for 7500 steps with 9 atoms

Performance: 1486.235 ns/day, 0.016 hours/ns, 17201.798 timesteps/s, 154.816 katom-step/s
98.8% CPU use with 1 MPI tasks x no OpenMP threads

MPI task timing breakdown:
Section |  min time  |  avg time  |  max time  |%varavg| %total
---------------------------------------------------------------
Pair    | 0.22416    | 0.22416    | 0.22416    |   0.0 | 51.41
Bond    | 0.0020991  | 0.0020991  | 0.0020991  |   0.0 |  0.48
Kspace  | 0.090877   | 0.090877   | 0.090877   |   0.0 | 20.84
Neigh   | 0.0081115  | 0.0081115  | 0.0081115  |   0.0 |  1.86
Comm    | 0.047494   | 0.047494   | 0.047494   |   0.0 | 10.89
Output  | 0.00019659 | 0.00019659 | 0.00019659 |   0.0 |  0.05
Modify  | 0.054953   | 0.054953   | 0.054953   |   0.0 | 12.60
Other   |            | 0.008106   |            |       |  1.86

Nlocal:              9 ave           9 max           9 min
Histogram: 1 0 0 0 0 0 0 0 0 0
Nghost:           1719 ave        1719 max        1719 min
Histogram: 1 0 0 0 0 0 0 0 0 0
Neighs:           2192 ave        2192 max        2192 min
Histogram: 1 0 0 0 0 0 0 0 0 0

Total # of neighbors = 2192
Ave neighs/atom = 243.55556
Ave special neighs/atom = 2
Neighbor list builds = 116
Dangerous builds = 0
unfix 15d
unfix 15c
unfix 15b
unfix 15a

print "immed_press = ${immed_press}"
immed_press = -2345.45584013378
print "immed_modulus = ${immed_modulus}"
immed_modulus = 53870.2045159943
print "factor = ${factor}"
factor = 0.992333124021958
if "${defm_id} == 99 || ${factor} == 1" then "jump SELF defm_break"

fix 21a all deform 100 x scale ${factor} y scale ${factor} z scale ${factor} remap v
fix 21a all deform 100 x scale 0.992333124021958 y scale ${factor} z scale ${factor} remap v
fix 21a all deform 100 x scale 0.992333124021958 y scale 0.992333124021958 z scale ${factor} remap v
fix 21a all deform 100 x scale 0.992333124021958 y scale 0.992333124021958 z scale 0.992333124021958 remap v
fix 21b all temp/berendsen 300 300 100
fix 21c all nve
run 1250
PPPM initialization ...
  using 12-bit tables for long-range coulomb (src/kspace.cpp:342)
  G vector (1/distance) = 0.27050939
  grid = 4 4 4
  stencil order = 5
  estimated absolute RMS force accuracy = 0.003190921
  estimated relative force accuracy = 9.6093639e-06
  using double precision FFTW3
  3d grid and FFT values/proc = 1331 64
Generated 1 of 1 mixed pair_coeff terms from geometric mixing rule
SHAKE stats (type/ave/delta/count) on step 29334
Bond:   1   0.9572    6.91661e-07        6
Angle:  1   104.52    1.36277e-05        3
Per MPI rank memory allocation (min/avg/max) = 9.113 | 9.113 | 9.113 Mbytes
   Step          Temp          E_pair         E_mol          TotEng         Press          Volume    
     29334   325.56815     -23.11432       0             -18.262036     -5103.6738      174.77075    
SHAKE stats (type/ave/delta/count) on step 30000
Bond:   1   0.9572    4.34344e-07        6
Angle:  1   104.52    3.15793e-05        3
     30000   289.79014     -21.933559      0             -17.614513      620.66563      172.63772    
     30584   182.11187     -21.355516      0             -18.641312     -2704.9108      171.0478     
Loop time of 0.0649844 on 1 procs for 1250 steps with 9 atoms

Performance: 1661.937 ns/day, 0.014 hours/ns, 19235.381 timesteps/s, 173.118 katom-step/s
236.9% CPU use with 1 MPI tasks x no OpenMP threads

MPI task timing breakdown:
Section |  min time  |  avg time  |  max time  |%varavg| %total
---------------------------------------------------------------
Pair    | 0.031828   | 0.031828   | 0.031828   |   0.0 | 48.98
Bond    | 0.00018001 | 0.00018001 | 0.00018001 |   0.0 |  0.28
Kspace  | 0.014722   | 0.014722   | 0.014722   |   0.0 | 22.65
Neigh   | 0.0013022  | 0.0013022  | 0.0013022  |   0.0 |  2.00
Comm    | 0.0082771  | 0.0082771  | 0.0082771  |   0.0 | 12.74
Output  | 9.8847e-05 | 9.8847e-05 | 9.8847e-05 |   0.0 |  0.15
Modify  | 0.0072321  | 0.0072321  | 0.0072321  |   0.0 | 11.13
Other   |            | 0.001344   |            |       |  2.07

Nlocal:              9 ave           9 max           9 min
Histogram: 1 0 0 0 0 0 0 0 0 0
Nghost:           1725 ave        1725 max        1725 min
Histogram: 1 0 0 0 0 0 0 0 0 0
Neighs:           2222 ave        2222 max        2222 min
Histogram: 1 0 0 0 0 0 0 0 0 0

Total # of neighbors = 2222
Ave neighs/atom = 246.88889
Ave special neighs/atom = 2
Neighbor list builds = 19
Dangerous builds = 0
unfix 21c
unfix 21b
unfix 21a

fix 22a all temp/berendsen 300 300 100
fix 22b all nve
run 1250
PPPM initialization ...
  using 12-bit tables for long-range coulomb (src/kspace.cpp:342)
  G vector (1/distance) = 0.27100273
  grid = 4 4 4
  stencil order = 5
  estimated absolute RMS force accuracy = 0.0031228498
  estimated relative force accuracy = 9.4043695e-06
  using double precision FFTW3
  3d grid and FFT values/proc = 1331 64
Generated 1 of 1 mixed pair_coeff terms from geometric mixing rule
SHAKE stats (type/ave/delta/count) on step 30584
Bond:   1   0.957201  7.1958e-07         6
Angle:  1   104.52    4.70139e-05        3
Per MPI rank memory allocation (min/avg/max) = 9.113 | 9.113 | 9.113 Mbytes
   Step          Temp          E_pair         E_mol          TotEng         Press     
     30584   182.11187     -21.355382      0             -18.641178     -2704.6285    
     31000   323.23638     -23.580738      0             -18.763206      149.76005    
     31834   213.4367      -21.379956      0             -18.198884     -2763.0285    
Loop time of 0.0642523 on 1 procs for 1250 steps with 9 atoms

Performance: 1680.874 ns/day, 0.014 hours/ns, 19454.564 timesteps/s, 175.091 katom-step/s
183.7% CPU use with 1 MPI tasks x no OpenMP threads

MPI task timing breakdown:
Section |  min time  |  avg time  |  max time  |%varavg| %total
---------------------------------------------------------------
Pair    | 0.031762   | 0.031762   | 0.031762   |   0.0 | 49.43
Bond    | 0.00017847 | 0.00017847 | 0.00017847 |   0.0 |  0.28
Kspace  | 0.014536   | 0.014536   | 0.014536   |   0.0 | 22.62
Neigh   | 0.0011529  | 0.0011529  | 0.0011529  |   0.0 |  1.79
Comm    | 0.0080412  | 0.0080412  | 0.0080412  |   0.0 | 12.52
Output  | 8.0916e-05 | 8.0916e-05 | 8.0916e-05 |   0.0 |  0.13
Modify  | 0.0071654  | 0.0071654  | 0.0071654  |   0.0 | 11.15
Other   |            | 0.001336   |            |       |  2.08

Nlocal:              9 ave           9 max           9 min
Histogram: 1 0 0 0 0 0 0 0 0 0
Nghost:           1755 ave        1755 max        1755 min
Histogram: 1 0 0 0 0 0 0 0 0 0
Neighs:           2218 ave        2218 max        2218 min
Histogram: 1 0 0 0 0 0 0 0 0 0

Total # of neighbors = 2218
Ave neighs/atom = 246.44444
Ave special neighs/atom = 2
Neighbor list builds = 17
Dangerous builds = 0
unfix 22b
unfix 22a

shell cd ..
next defm_id
jump SELF defm_start
print "defm_id = ${defm_id}"
defm_id = 02
shell mkdir defm_${defm_id}
shell mkdir defm_02
shell cd defm_${defm_id}
shell cd defm_02

fix 15a all ave/time 1 25 25 c_thermo_press v_vol file press_vol.data
fix 15b all deform 100 x wiggle ${amp} 2500 y wiggle ${amp} 2500 z wiggle ${amp} 2500
fix 15b all deform 100 x wiggle 0.0555101621469537 2500 y wiggle ${amp} 2500 z wiggle ${amp} 2500
fix 15b all deform 100 x wiggle 0.0555101621469537 2500 y wiggle 0.0555101621469537 2500 z wiggle ${amp} 2500
fix 15b all deform 100 x wiggle 0.0555101621469537 2500 y wiggle 0.0555101621469537 2500 z wiggle 0.0555101621469537 2500
fix 15c all temp/berendsen 300 300 100
fix 15d all nve
run 7500
PPPM initialization ...
  using 12-bit tables for long-range coulomb (src/kspace.cpp:342)
  G vector (1/distance) = 0.27100273
  grid = 4 4 4
  stencil order = 5
  estimated absolute RMS force accuracy = 0.0031228498
  estimated relative force accuracy = 9.4043695e-06
  using double precision FFTW3
  3d grid and FFT values/proc = 1331 64
Generated 1 of 1 mixed pair_coeff terms from geometric mixing rule
SHAKE stats (type/ave/delta/count) on step 31834
Bond:   1   0.957201  7.30725e-07        6
Angle:  1   104.52    0.00012503         3
Per MPI rank memory allocation (min/avg/max) = 9.113 | 9.113 | 9.113 Mbytes
   Step          Temp          E_pair         E_mol          TotEng         Press          Volume    
     31834   213.4367      -21.379956      0             -18.198884     -2762.9791      171.0478     
     32000   316.16522     -22.755802      0             -18.04366      -3301.4977      173.13552    
     33000   186.9079      -18.234877      0             -15.449192     -2873.6664      172.12535    
     34000   410.73386     -24.202606      0             -18.081008     -2111.4648      167.25701    
     35000   336.72988     -23.74158       0             -18.722941     -3292.73        176.20295    
     36000   213.87452     -19.888351      0             -16.700755     -3376.8499      166.64645    
     37000   259.22461     -22.464204      0             -18.600708     -790.47458      173.13552    
     38000   402.83326     -23.598081      0             -17.594233     -4672.8143      172.12535    
     39000   333.50611     -24.047997      0             -19.077405      4459.9492      167.25701    
     39334   258.22187     -21.495643      0             -17.647091     -6360.0757      170.61022    
Loop time of 0.436654 on 1 procs for 7500 steps with 9 atoms

Performance: 1484.014 ns/day, 0.016 hours/ns, 17176.083 timesteps/s, 154.585 katom-step/s
98.7% CPU use with 1 MPI tasks x no OpenMP threads

MPI task timing breakdown:
Section |  min time  |  avg time  |  max time  |%varavg| %total
---------------------------------------------------------------
Pair    | 0.22539    | 0.22539    | 0.22539    |   0.0 | 51.62
Bond    | 0.0021258  | 0.0021258  | 0.0021258  |   0.0 |  0.49
Kspace  | 0.090779   | 0.090779   | 0.090779   |   0.0 | 20.79
Neigh   | 0.0073413  | 0.0073413  | 0.0073413  |   0.0 |  1.68
Comm    | 0.047386   | 0.047386   | 0.047386   |   0.0 | 10.85
Output  | 0.00029477 | 0.00029477 | 0.00029477 |   0.0 |  0.07
Modify  | 0.055313   | 0.055313   | 0.055313   |   0.0 | 12.67
Other   |            | 0.00802    |            |       |  1.84

Nlocal:              9 ave           9 max           9 min
Histogram: 1 0 0 0 0 0 0 0 0 0
Nghost:           1508 ave        1508 max        1508 min
Histogram: 1 0 0 0 0 0 0 0 0 0
Neighs:           2228 ave        2228 max        2228 min
Histogram: 1 0 0 0 0 0 0 0 0 0

Total # of neighbors = 2228
Ave neighs/atom = 247.55556
Ave special neighs/atom = 2
Neighbor list builds = 108
Dangerous builds = 0
unfix 15d
unfix 15c
unfix 15b
unfix 15a

print "immed_press = ${immed_press}"
immed_press = -2591.47328227425
print "immed_modulus = ${immed_modulus}"
immed_modulus = 63668.4905610011
print "factor = ${factor}"
factor = 0.99233345053936
if "${defm_id} == 99 || ${factor} == 1" then "jump SELF defm_break"

fix 21a all deform 100 x scale ${factor} y scale ${factor} z scale ${factor} remap v
fix 21a all deform 100 x scale 0.99233345053936 y scale ${factor} z scale ${factor} remap v
fix 21a all deform 100 x scale 0.99233345053936 y scale 0.99233345053936 z scale ${factor} remap v
fix 21a all deform 100 x scale 0.99233345053936 y scale 0.99233345053936 z scale 0.99233345053936 remap v
fix 21b all temp/berendsen 300 300 100
fix 21c all nve
run 1250
PPPM initialization ...
  using 12-bit tables for long-range coulomb (src/kspace.cpp:342)
  G vector (1/distance) = 0.27106136
  grid = 4 4 4
  stencil order = 5
  estimated absolute RMS force accuracy = 0.0031148504
  estimated relative force accuracy = 9.3802796e-06
  using double precision FFTW3
  3d grid and FFT values/proc = 1331 64
Generated 1 of 1 mixed pair_coeff terms from geometric mixing rule
SHAKE stats (type/ave/delta/count) on step 39334
Bond:   1   0.9572    9.36421e-07        6
Angle:  1   104.52    3.89984e-05        3
Per MPI rank memory allocation (min/avg/max) = 9.113 | 9.113 | 9.113 Mbytes
   Step          Temp          E_pair         E_mol          TotEng         Press          Volume    
     39334   258.22187     -21.495638      0             -17.647086     -6359.9409      170.61022    
SHAKE stats (type/ave/delta/count) on step 40000
Bond:   1   0.9572    3.39615e-07        6
Angle:  1   104.52    2.45176e-05        3
     40000   293.20229     -22.072369      0             -17.702468     -3323.6972      168.52805    
     40584   353.78999     -24.399078      0             -19.126175     -3571.6828      166.97605    
Loop time of 0.0627745 on 1 procs for 1250 steps with 9 atoms

Performance: 1720.443 ns/day, 0.014 hours/ns, 19912.530 timesteps/s, 179.213 katom-step/s
239.0% CPU use with 1 MPI tasks x no OpenMP threads

MPI task timing breakdown:
Section |  min time  |  avg time  |  max time  |%varavg| %total
---------------------------------------------------------------
Pair    | 0.031691   | 0.031691   | 0.031691   |   0.0 | 50.48
Bond    | 0.00016998 | 0.00016998 | 0.00016998 |   0.0 |  0.27
Kspace  | 0.014876   | 0.014876   | 0.014876   |   0.0 | 23.70
Neigh   | 0.00099824 | 0.00099824 | 0.00099824 |   0.0 |  1.59
Comm    | 0.0072802  | 0.0072802  | 0.0072802  |   0.0 | 11.60
Output  | 9.4837e-05 | 9.4837e-05 | 9.4837e-05 |   0.0 |  0.15
Modify  | 0.0064185  | 0.0064185  | 0.0064185  |   0.0 | 10.22
Other   |            | 0.001246   |            |       |  1.98

Nlocal:              9 ave           9 max           9 min
Histogram: 1 0 0 0 0 0 0 0 0 0
Nghost:           1640 ave        1640 max        1640 min
Histogram: 1 0 0 0 0 0 0 0 0 0
Neighs:           2265 ave        2265 max        2265 min
Histogram: 1 0 0 0 0 0 0 0 0 0

Total # of neighbors = 2265
Ave neighs/atom = 251.66667
Ave special neighs/atom = 2
Neighbor list builds = 15
Dangerous builds = 0
unfix 21c
unfix 21b
unfix 21a

fix 22a all temp/berendsen 300 300 100
fix 22b all nve
run 1250
PPPM initialization ...
  using 12-bit tables for long-range coulomb (src/kspace.cpp:342)
  G vector (1/distance) = 0.27155356
  grid = 4 4 4
  stencil order = 5
  estimated absolute RMS force accuracy = 0.0030484262
  estimated relative force accuracy = 9.1802449e-06
  using double precision FFTW3
  3d grid and FFT values/proc = 1331 64
Generated 1 of 1 mixed pair_coeff terms from geometric mixing rule
SHAKE stats (type/ave/delta/count) on step 40584
Bond:   1   0.9572    1.47402e-06        6
Angle:  1   104.52    3.95778e-05        3
Per MPI rank memory allocation (min/avg/max) = 9.113 | 9.113 | 9.113 Mbytes
   Step          Temp          E_pair         E_mol          TotEng         Press     
     40584   353.78999     -24.398974      0             -19.12607      -3571.2161    
     41000   327.27668     -22.783653      0             -17.905905     -2930.9936    
     41834   262.43654     -23.143649      0             -19.232281      757.03281    
Loop time of 0.0645444 on 1 procs for 1250 steps with 9 atoms

Performance: 1673.267 ns/day, 0.014 hours/ns, 19366.519 timesteps/s, 174.299 katom-step/s
201.2% CPU use with 1 MPI tasks x no OpenMP threads

MPI task timing breakdown:
Section |  min time  |  avg time  |  max time  |%varavg| %total
---------------------------------------------------------------
Pair    | 0.032689   | 0.032689   | 0.032689   |   0.0 | 50.65
Bond    | 0.00016824 | 0.00016824 | 0.00016824 |   0.0 |  0.26
Kspace  | 0.014439   | 0.014439   | 0.014439   |   0.0 | 22.37
Neigh   | 0.0010124  | 0.0010124  | 0.0010124  |   0.0 |  1.57
Comm    | 0.0080295  | 0.0080295  | 0.0080295  |   0.0 | 12.44
Output  | 0.00011865 | 0.00011865 | 0.00011865 |   0.0 |  0.18
Modify  | 0.0068335  | 0.0068335  | 0.0068335  |   0.0 | 10.59
Other   |            | 0.001254   |            |       |  1.94

Nlocal:              9 ave           9 max           9 min
Histogram: 1 0 0 0 0 0 0 0 0 0
Nghost:           1617 ave        1617 max        1617 min
Histogram: 1 0 0 0 0 0 0 0 0 0
Neighs:           2277 ave        2277 max        2277 min
Histogram: 1 0 0 0 0 0 0 0 0 0

Total # of neighbors = 2277
Ave neighs/atom = 253
Ave special neighs/atom = 2
Neighbor list builds = 15
Dangerous builds = 0
unfix 22b
unfix 22a

shell cd ..
next defm_id
jump SELF defm_start
print "defm_id = ${defm_id}"
defm_id = 03
shell mkdir defm_${defm_id}
shell mkdir defm_03
shell cd defm_${defm_id}
shell cd defm_03

fix 15a all ave/time 1 25 25 c_thermo_press v_vol file press_vol.data
fix 15b all deform 100 x wiggle ${amp} 2500 y wiggle ${amp} 2500 z wiggle ${amp} 2500
fix 15b all deform 100 x wiggle 0.0550661514869645 2500 y wiggle ${amp} 2500 z wiggle ${amp} 2500
fix 15b all deform 100 x wiggle 0.0550661514869645 2500 y wiggle 0.0550661514869645 2500 z wiggle ${amp} 2500
fix 15b all deform 100 x wiggle 0.0550661514869645 2500 y wiggle 0.0550661514869645 2500 z wiggle 0.0550661514869645 2500
fix 15c all temp/berendsen 300 300 100
fix 15d all nve
run 7500
PPPM initialization ...
  using 12-bit tables for long-range coulomb (src/kspace.cpp:342)
  G vector (1/distance) = 0.27155356
  grid = 4 4 4
  stencil order = 5
  estimated absolute RMS force accuracy = 0.0030484262
  estimated relative force accuracy = 9.1802449e-06
  using double precision FFTW3
  3d grid and FFT values/proc = 1331 64
Generated 1 of 1 mixed pair_coeff terms from geometric mixing rule
SHAKE stats (type/ave/delta/count) on step 41834
Bond:   1   0.9572    4.39703e-07        6
Angle:  1   104.52    6.47296e-05        3
Per MPI rank memory allocation (min/avg/max) = 9.113 | 9.113 | 9.113 Mbytes
   Step          Temp          E_pair         E_mol          TotEng         Press          Volume    
     41834   262.43654     -23.143649      0             -19.232281      757.2116       166.97605    
     42000   209.15729     -22.185982      0             -19.068691     -4165.7253      169.01407    
     43000   288.96195     -23.830038      0             -19.523335     -4356.5415      168.02794    
     44000   302.30543     -24.873023      0             -20.367448     -1233.424       163.27549    
     45000   312.82054     -24.135165      0             -19.472872     -2614.5033      172.00848    
     46000   240.04411     -23.587915      0             -20.010286     -357.4544       162.67947    
     47000   356.8244      -25.98461       0             -20.666481     -3135.2078      169.01407    
     48000   342.12519     -25.950483      0             -20.851432     -1827.6761      168.02794    
     49000   270.58753     -25.927312      0             -21.894462     -1661.4068      163.27549    
     49334   329.6202      -26.497781      0             -21.585105     -5016.914       166.54888    
Loop time of 0.443507 on 1 procs for 7500 steps with 9 atoms

Performance: 1461.083 ns/day, 0.016 hours/ns, 16910.683 timesteps/s, 152.196 katom-step/s
98.7% CPU use with 1 MPI tasks x no OpenMP threads

MPI task timing breakdown:
Section |  min time  |  avg time  |  max time  |%varavg| %total
---------------------------------------------------------------
Pair    | 0.23314    | 0.23314    | 0.23314    |   0.0 | 52.57
Bond    | 0.0021274  | 0.0021274  | 0.0021274  |   0.0 |  0.48
Kspace  | 0.091393   | 0.091393   | 0.091393   |   0.0 | 20.61
Neigh   | 0.0069695  | 0.0069695  | 0.0069695  |   0.0 |  1.57
Comm    | 0.046649   | 0.046649   | 0.046649   |   0.0 | 10.52
Output  | 0.00022639 | 0.00022639 | 0.00022639 |   0.0 |  0.05
Modify  | 0.055104   | 0.055104   | 0.055104   |   0.0 | 12.42
Other   |            | 0.007902   |            |       |  1.78

Nlocal:              9 ave           9 max           9 min
Histogram: 1 0 0 0 0 0 0 0 0 0
Nghost:           1755 ave        1755 max        1755 min
Histogram: 1 0 0 0 0 0 0 0 0 0
Neighs:           2283 ave        2283 max        2283 min
Histogram: 1 0 0 0 0 0 0 0 0 0

Total # of neighbors = 2283
Ave neighs/atom = 253.66667
Ave special neighs/atom = 2
Neighbor list builds = 101
Dangerous builds = 0
unfix 15d
unfix 15c
unfix 15b
unfix 15a

print "immed_press = ${immed_press}"
immed_press = -2833.6193993311
print "immed_modulus = ${immed_modulus}"
immed_modulus = 58930.2949963277
print "factor = ${factor}"
factor = 0.99233373239065
if "${defm_id} == 99 || ${factor} == 1" then "jump SELF defm_break"

fix 21a all deform 100 x scale ${factor} y scale ${factor} z scale ${factor} remap v
fix 21a all deform 100 x scale 0.99233373239065 y scale ${factor} z scale ${factor} remap v
fix 21a all deform 100 x scale 0.99233373239065 y scale 0.99233373239065 z scale ${factor} remap v
fix 21a all deform 100 x scale 0.99233373239065 y scale 0.99233373239065 z scale 0.99233373239065 remap v
fix 21b all temp/berendsen 300 300 100
fix 21c all nve
run 1250
PPPM initialization ...
  using 12-bit tables for long-range coulomb (src/kspace.cpp:342)
  G vector (1/distance) = 0.27161204
  grid = 4 4 4
  stencil order = 5
  estimated absolute RMS force accuracy = 0.00304062
  estimated relative force accuracy = 9.1567368e-06
  using double precision FFTW3
  3d grid and FFT values/proc = 1331 64
Generated 1 of 1 mixed pair_coeff terms from geometric mixing rule
SHAKE stats (type/ave/delta/count) on step 49334
Bond:   1   0.9572    5.98873e-07        6
Angle:  1   104.52    7.5295e-06         3
Per MPI rank memory allocation (min/avg/max) = 9.113 | 9.113 | 9.113 Mbytes
   Step          Temp          E_pair         E_mol          TotEng         Press          Volume    
     49334   329.6202      -26.497761      0             -21.585085     -5016.6648      166.54888    
SHAKE stats (type/ave/delta/count) on step 50000
Bond:   1   0.9572    4.90477e-07        6
Angle:  1   104.52    3.88892e-05        3
     50000   321.63229     -26.543294      0             -21.74967      -3387.0103      164.51636    
     50584   287.68066     -26.433517      0             -22.14591      -863.97687      163.00135    
Loop time of 0.0650592 on 1 procs for 1250 steps with 9 atoms

Performance: 1660.027 ns/day, 0.014 hours/ns, 19213.272 timesteps/s, 172.919 katom-step/s
241.0% CPU use with 1 MPI tasks x no OpenMP threads

MPI task timing breakdown:
Section |  min time  |  avg time  |  max time  |%varavg| %total
---------------------------------------------------------------
Pair    | 0.033107   | 0.033107   | 0.033107   |   0.0 | 50.89
Bond    | 0.00017408 | 0.00017408 | 0.00017408 |   0.0 |  0.27
Kspace  | 0.014623   | 0.014623   | 0.014623   |   0.0 | 22.48
Neigh   | 0.0008738  | 0.0008738  | 0.0008738  |   0.0 |  1.34
Comm    | 0.0078552  | 0.0078552  | 0.0078552  |   0.0 | 12.07
Output  | 9.9866e-05 | 9.9866e-05 | 9.9866e-05 |   0.0 |  0.15
Modify  | 0.0070234  | 0.0070234  | 0.0070234  |   0.0 | 10.80
Other   |            | 0.001303   |            |       |  2.00

Nlocal:              9 ave           9 max           9 min
Histogram: 1 0 0 0 0 0 0 0 0 0
Nghost:           1563 ave        1563 max        1563 min
Histogram: 1 0 0 0 0 0 0 0 0 0
Neighs:           2319 ave        2319 max        2319 min
Histogram: 1 0 0 0 0 0 0 0 0 0

Total # of neighbors = 2319
Ave neighs/atom = 257.66667
Ave special neighs/atom = 2
Neighbor list builds = 13
Dangerous builds = 0
unfix 21c
unfix 21b
unfix 21a

fix 22a all temp/berendsen 300 300 100
fix 22b all nve
run 1250
PPPM initialization ...
  using 12-bit tables for long-range coulomb (src/kspace.cpp:342)
  G vector (1/distance) = 0.2721031
  grid = 4 4 4
  stencil order = 5
  estimated absolute RMS force accuracy = 0.0029758027
  estimated relative force accuracy = 8.9615414e-06
  using double precision FFTW3
  3d grid and FFT values/proc = 1331 64
Generated 1 of 1 mixed pair_coeff terms from geometric mixing rule
SHAKE stats (type/ave/delta/count) on step 50584
Bond:   1   0.9572    4.75995e-07        6
Angle:  1   104.52    4.80166e-05        3
Per MPI rank memory allocation (min/avg/max) = 9.113 | 9.113 | 9.113 Mbytes
   Step          Temp          E_pair         E_mol          TotEng         Press     
     50584   287.68066     -26.433612      0             -22.146005     -863.98789    
     51000   301.12678     -26.734303      0             -22.246294     -2521.7666    
     51834   295.14141     -26.574114      0             -22.175312     -6327.0315    
Loop time of 0.0651114 on 1 procs for 1250 steps with 9 atoms

Performance: 1658.697 ns/day, 0.014 hours/ns, 19197.877 timesteps/s, 172.781 katom-step/s
203.9% CPU use with 1 MPI tasks x no OpenMP threads

MPI task timing breakdown:
Section |  min time  |  avg time  |  max time  |%varavg| %total
---------------------------------------------------------------
Pair    | 0.03354    | 0.03354    | 0.03354    |   0.0 | 51.51
Bond    | 0.00016526 | 0.00016526 | 0.00016526 |   0.0 |  0.25
Kspace  | 0.014567   | 0.014567   | 0.014567   |   0.0 | 22.37
Neigh   | 0.00092459 | 0.00092459 | 0.00092459 |   0.0 |  1.42
Comm    | 0.0076724  | 0.0076724  | 0.0076724  |   0.0 | 11.78
Output  | 8.4237e-05 | 8.4237e-05 | 8.4237e-05 |   0.0 |  0.13
Modify  | 0.0068707  | 0.0068707  | 0.0068707  |   0.0 | 10.55
Other   |            | 0.001287   |            |       |  1.98

Nlocal:              9 ave           9 max           9 min
Histogram: 1 0 0 0 0 0 0 0 0 0
Nghost:           1579 ave        1579 max        1579 min
Histogram: 1 0 0 0 0 0 0 0 0 0
Neighs:           2327 ave        2327 max        2327 min
Histogram: 1 0 0 0 0 0 0 0 0 0

Total # of neighbors = 2327
Ave neighs/atom = 258.55556
Ave special neighs/atom = 2
Neighbor list builds = 13
Dangerous builds = 0
unfix 22b
unfix 22a

shell cd ..
next defm_id
jump SELF defm_start
print "defm_id = ${defm_id}"
defm_id = 04
shell mkdir defm_${defm_id}
shell mkdir defm_04
shell cd defm_${defm_id}
shell cd defm_04

fix 15a all ave/time 1 25 25 c_thermo_press v_vol file press_vol.data
fix 15b all deform 100 x wiggle ${amp} 2500 y wiggle ${amp} 2500 z wiggle ${amp} 2500
fix 15b all deform 100 x wiggle 0.0546257068123822 2500 y wiggle ${amp} 2500 z wiggle ${amp} 2500
fix 15b all deform 100 x wiggle 0.0546257068123822 2500 y wiggle 0.0546257068123822 2500 z wiggle ${amp} 2500
fix 15b all deform 100 x wiggle 0.0546257068123822 2500 y wiggle 0.0546257068123822 2500 z wiggle 0.0546257068123822 2500
fix 15c all temp/berendsen 300 300 100
fix 15d all nve
run 7500
PPPM initialization ...
  using 12-bit tables for long-range coulomb (src/kspace.cpp:342)
  G vector (1/distance) = 0.2721031
  grid = 4 4 4
  stencil order = 5
  estimated absolute RMS force accuracy = 0.0029758027
  estimated relative force accuracy = 8.9615414e-06
  using double precision FFTW3
  3d grid and FFT values/proc = 1331 64
Generated 1 of 1 mixed pair_coeff terms from geometric mixing rule
SHAKE stats (type/ave/delta/count) on step 51834
Bond:   1   0.9572    6.44827e-07        6
Angle:  1   104.52    5.58343e-05        3
Per MPI rank memory allocation (min/avg/max) = 9.113 | 9.113 | 9.113 Mbytes
   Step          Temp          E_pair         E_mol          TotEng         Press          Volume    
     51834   295.14141     -26.574114      0             -22.175312     -6326.8615      163.00135    
     52000   247.4615      -26.085242      0             -22.397063     -1466.3138      164.99086    
     53000   339.24424     -27.091885      0             -22.035772     -3017.7988      164.02821    
     54000   282.9055      -26.911951      0             -22.695513     -1792.7415      159.38889    
     55000   326.48531     -27.360172      0             -22.494219     -4093.6459      167.914      
     56000   298.03979     -27.556955      0             -23.114955     -2968.1541      158.80705    
     57000   278.33694     -27.169682      0             -23.021334     -2108.9771      164.99086    
     58000   318.04633     -27.582297      0             -22.842119     -4677.5834      164.02821    
     59000   310.3321      -28.10587       0             -23.480665     -2487.3508      159.38889    
     59334   297.58984     -27.591927      0             -23.156633     -2200.0852      162.58436    
Loop time of 0.451985 on 1 procs for 7500 steps with 9 atoms

Performance: 1433.675 ns/day, 0.017 hours/ns, 16593.459 timesteps/s, 149.341 katom-step/s
98.6% CPU use with 1 MPI tasks x no OpenMP threads

MPI task timing breakdown:
Section |  min time  |  avg time  |  max time  |%varavg| %total
---------------------------------------------------------------
Pair    | 0.24191    | 0.24191    | 0.24191    |   0.0 | 53.52
Bond    | 0.0021936  | 0.0021936  | 0.0021936  |   0.0 |  0.49
Kspace  | 0.090956   | 0.090956   | 0.090956   |   0.0 | 20.12
Neigh   | 0.0056838  | 0.0056838  | 0.0056838  |   0.0 |  1.26
Comm    | 0.046815   | 0.046815   | 0.046815   |   0.0 | 10.36
Output  | 0.00024779 | 0.00024779 | 0.00024779 |   0.0 |  0.05
Modify  | 0.056121   | 0.056121   | 0.056121   |   0.0 | 12.42
Other   |            | 0.008063   |            |       |  1.78

Nlocal:              9 ave           9 max           9 min
Histogram: 1 0 0 0 0 0 0 0 0 0
Nghost:           1725 ave        1725 max        1725 min
Histogram: 1 0 0 0 0 0 0 0 0 0
Neighs:           2345 ave        2345 max        2345 min
Histogram: 1 0 0 0 0 0 0 0 0 0

Total # of neighbors = 2345
Ave neighs/atom = 260.55556
Ave special neighs/atom = 2
Neighbor list builds = 80
Dangerous builds = 0
unfix 15d
unfix 15c
unfix 15b
unfix 15a

print "immed_press = ${immed_press}"
immed_press = -3018.18666889632
print "immed_modulus = ${immed_modulus}"
immed_modulus = 52945.4945410702
print "factor = ${factor}"
factor = 0.992333096138236
if "${defm_id} == 99 || ${factor} == 1" then "jump SELF defm_break"

fix 21a all deform 100 x scale ${factor} y scale ${factor} z scale ${factor} remap v
fix 21a all deform 100 x scale 0.992333096138236 y scale ${factor} z scale ${factor} remap v
fix 21a all deform 100 x scale 0.992333096138236 y scale 0.992333096138236 z scale ${factor} remap v
fix 21a all deform 100 x scale 0.992333096138236 y scale 0.992333096138236 z scale 0.992333096138236 remap v
fix 21b all temp/berendsen 300 300 100
fix 21c all nve
run 1250
PPPM initialization ...
  using 12-bit tables for long-range coulomb (src/kspace.cpp:342)
  G vector (1/distance) = 0.27216146
  grid = 4 4 4
  stencil order = 5
  estimated absolute RMS force accuracy = 0.0029681851
  estimated relative force accuracy = 8.9386012e-06
  using double precision FFTW3
  3d grid and FFT values/proc = 1331 64
Generated 1 of 1 mixed pair_coeff terms from geometric mixing rule
SHAKE stats (type/ave/delta/count) on step 59334
Bond:   1   0.9572    4.05716e-07        6
Angle:  1   104.52    4.49039e-05        3
Per MPI rank memory allocation (min/avg/max) = 9.113 | 9.113 | 9.113 Mbytes
   Step          Temp          E_pair         E_mol          TotEng         Press          Volume    
     59334   297.62233     -27.591938      0             -23.15616      -2219.6996      162.58436    
SHAKE stats (type/ave/delta/count) on step 60000
Bond:   1   0.9572    3.20948e-07        6
Angle:  1   104.52    3.55296e-05        3
     60000   295.89181     -27.738848      0             -23.328861     -1431.9592      160.60005    
     60584   281.69583     -27.608401      0             -23.409992     -2604.9789      159.12099    
Loop time of 0.0651015 on 1 procs for 1250 steps with 9 atoms

Performance: 1658.948 ns/day, 0.014 hours/ns, 19200.787 timesteps/s, 172.807 katom-step/s
241.4% CPU use with 1 MPI tasks x no OpenMP threads

MPI task timing breakdown:
Section |  min time  |  avg time  |  max time  |%varavg| %total
---------------------------------------------------------------
Pair    | 0.033149   | 0.033149   | 0.033149   |   0.0 | 50.92
Bond    | 0.00017326 | 0.00017326 | 0.00017326 |   0.0 |  0.27
Kspace  | 0.014466   | 0.014466   | 0.014466   |   0.0 | 22.22
Neigh   | 0.00086812 | 0.00086812 | 0.00086812 |   0.0 |  1.33
Comm    | 0.007882   | 0.007882   | 0.007882   |   0.0 | 12.11
Output  | 9.3401e-05 | 9.3401e-05 | 9.3401e-05 |   0.0 |  0.14
Modify  | 0.0071544  | 0.0071544  | 0.0071544  |   0.0 | 10.99
Other   |            | 0.001315   |            |       |  2.02

Nlocal:              9 ave           9 max           9 min
Histogram: 1 0 0 0 0 0 0 0 0 0
Nghost:           1791 ave        1791 max        1791 min
Histogram: 1 0 0 0 0 0 0 0 0 0
Neighs:           2389 ave        2389 max        2389 min
Histogram: 1 0 0 0 0 0 0 0 0 0

Total # of neighbors = 2389
Ave neighs/atom = 265.44444
Ave special neighs/atom = 2
Neighbor list builds = 12
Dangerous builds = 0
unfix 21c
unfix 21b
unfix 21a

fix 22a all temp/berendsen 300 300 100
fix 22b all nve
run 1250
PPPM initialization ...
  using 12-bit tables for long-range coulomb (src/kspace.cpp:342)
  G vector (1/distance) = 0.27265143
  grid = 4 4 4
  stencil order = 5
  estimated absolute RMS force accuracy = 0.0029049285
  estimated relative force accuracy = 8.748106e-06
  using double precision FFTW3
  3d grid and FFT values/proc = 1331 64
Generated 1 of 1 mixed pair_coeff terms from geometric mixing rule
SHAKE stats (type/ave/delta/count) on step 60584
Bond:   1   0.9572    5.93457e-07        6
Angle:  1   104.52    3.8907e-05         3
Per MPI rank memory allocation (min/avg/max) = 9.113 | 9.113 | 9.113 Mbytes
   Step          Temp          E_pair         E_mol          TotEng         Press     
     60584   281.69583     -27.608478      0             -23.410069     -2604.9576    
     61000   297.7842      -28.062503      0             -23.624312     -2554.115     
     61834   292.99207     -27.930535      0             -23.563767     -2425.0361    
Loop time of 0.0657619 on 1 procs for 1250 steps with 9 atoms

Performance: 1642.288 ns/day, 0.015 hours/ns, 19007.963 timesteps/s, 171.072 katom-step/s
192.9% CPU use with 1 MPI tasks x no OpenMP threads

MPI task timing breakdown:
Section |  min time  |  avg time  |  max time  |%varavg| %total
---------------------------------------------------------------
Pair    | 0.034198   | 0.034198   | 0.034198   |   0.0 | 52.00
Bond    | 0.0001793  | 0.0001793  | 0.0001793  |   0.0 |  0.27
Kspace  | 0.014594   | 0.014594   | 0.014594   |   0.0 | 22.19
Neigh   | 0.00081452 | 0.00081452 | 0.00081452 |   0.0 |  1.24
Comm    | 0.0077707  | 0.0077707  | 0.0077707  |   0.0 | 11.82
Output  | 8.1668e-05 | 8.1668e-05 | 8.1668e-05 |   0.0 |  0.12
Modify  | 0.006866   | 0.006866   | 0.006866   |   0.0 | 10.44
Other   |            | 0.001258   |            |       |  1.91

Nlocal:              9 ave           9 max           9 min
Histogram: 1 0 0 0 0 0 0 0 0 0
Nghost:           1725 ave        1725 max        1725 min
Histogram: 1 0 0 0 0 0 0 0 0 0
Neighs:           2384 ave        2384 max        2384 min
Histogram: 1 0 0 0 0 0 0 0 0 0

Total # of neighbors = 2384
Ave neighs/atom = 264.88889
Ave special neighs/atom = 2
Neighbor list builds = 12
Dangerous builds = 0
unfix 22b
unfix 22a

shell cd ..
next defm_id
jump SELF defm_start
print "defm_id = ${defm_id}"
defm_id = 05
shell mkdir defm_${defm_id}
shell mkdir defm_05
shell cd defm_${defm_id}
shell cd defm_05

fix 15a all ave/time 1 25 25 c_thermo_press v_vol file press_vol.data
fix 15b all deform 100 x wiggle ${amp} 2500 y wiggle ${amp} 2500 z wiggle ${amp} 2500
fix 15b all deform 100 x wiggle 0.0541887526265452 2500 y wiggle ${amp} 2500 z wiggle ${amp} 2500
fix 15b all deform 100 x wiggle 0.0541887526265452 2500 y wiggle 0.0541887526265452 2500 z wiggle ${amp} 2500
fix 15b all deform 100 x wiggle 0.0541887526265452 2500 y wiggle 0.0541887526265452 2500 z wiggle 0.0541887526265452 2500
fix 15c all temp/berendsen 300 300 100
fix 15d all nve
run 7500
PPPM initialization ...
  using 12-bit tables for long-range coulomb (src/kspace.cpp:342)
  G vector (1/distance) = 0.27265143
  grid = 4 4 4
  stencil order = 5
  estimated absolute RMS force accuracy = 0.0029049285
  estimated relative force accuracy = 8.748106e-06
  using double precision FFTW3
  3d grid and FFT values/proc = 1331 64
Generated 1 of 1 mixed pair_coeff terms from geometric mixing rule
SHAKE stats (type/ave/delta/count) on step 61834
Bond:   1   0.9572    4.13053e-07        6
Angle:  1   104.52    3.79793e-05        3
Per MPI rank memory allocation (min/avg/max) = 9.113 | 9.113 | 9.113 Mbytes
   Step          Temp          E_pair         E_mol          TotEng         Press          Volume    
     61834   292.99207     -27.930535      0             -23.563767     -2424.8429      159.12099    
     62000   308.19992     -28.132838      0             -23.539411     -5094.0659      161.06314    
     63000   281.87478     -27.68377       0             -23.482694     -2514.65        160.1234     
     64000   304.52462     -28.524786      0             -23.986135     -1621.2649      155.59452    
     65000   292.43553     -27.79757       0             -23.439096     -4035.096       163.91668    
     66000   306.58117     -28.582453      0             -24.013151     -2239.9006      155.02654    
     67000   307.56748     -28.379557      0             -23.795556     -2138.244       161.06314    
     68000   291.18987     -28.05032       0             -23.710412     -3554.5505      160.1234     
     69000   326.38404     -29.054996      0             -24.190552     -2678.069       155.59452    
     69334   305.66938     -28.510754      0             -23.955042     -1970.9364      158.71392    
Loop time of 0.451142 on 1 procs for 7500 steps with 9 atoms

Performance: 1436.354 ns/day, 0.017 hours/ns, 16624.470 timesteps/s, 149.620 katom-step/s
98.7% CPU use with 1 MPI tasks x no OpenMP threads

MPI task timing breakdown:
Section |  min time  |  avg time  |  max time  |%varavg| %total
---------------------------------------------------------------
Pair    | 0.24066    | 0.24066    | 0.24066    |   0.0 | 53.34
Bond    | 0.0021469  | 0.0021469  | 0.0021469  |   0.0 |  0.48
Kspace  | 0.09082    | 0.09082    | 0.09082    |   0.0 | 20.13
Neigh   | 0.0052282  | 0.0052282  | 0.0052282  |   0.0 |  1.16
Comm    | 0.047775   | 0.047775   | 0.047775   |   0.0 | 10.59
Output  | 0.00021491 | 0.00021491 | 0.00021491 |   0.0 |  0.05
Modify  | 0.056232   | 0.056232   | 0.056232   |   0.0 | 12.46
Other   |            | 0.008065   |            |       |  1.79

Nlocal:              9 ave           9 max           9 min
Histogram: 1 0 0 0 0 0 0 0 0 0
Nghost:           1731 ave        1731 max        1731 min
Histogram: 1 0 0 0 0 0 0 0 0 0
Neighs:           2406 ave        2406 max        2406 min
Histogram: 1 0 0 0 0 0 0 0 0 0

Total # of neighbors = 2406
Ave neighs/atom = 267.33333
Ave special neighs/atom = 2
Neighbor list builds = 72
Dangerous builds = 0
unfix 15d
unfix 15c
unfix 15b
unfix 15a

print "immed_press = ${immed_press}"
immed_press = -3076.27411705686
print "immed_modulus = ${immed_modulus}"
immed_modulus = 27553.3497641526
print "factor = ${factor}"
factor = 0.99233296230421
if "${defm_id} == 99 || ${factor} == 1" then "jump SELF defm_break"

fix 21a all deform 100 x scale ${factor} y scale ${factor} z scale ${factor} remap v
fix 21a all deform 100 x scale 0.99233296230421 y scale ${factor} z scale ${factor} remap v
fix 21a all deform 100 x scale 0.99233296230421 y scale 0.99233296230421 z scale ${factor} remap v
fix 21a all deform 100 x scale 0.99233296230421 y scale 0.99233296230421 z scale 0.99233296230421 remap v
fix 21b all temp/berendsen 300 300 100
fix 21c all nve
run 1250
PPPM initialization ...
  using 12-bit tables for long-range coulomb (src/kspace.cpp:342)
  G vector (1/distance) = 0.27270966
  grid = 4 4 4
  stencil order = 5
  estimated absolute RMS force accuracy = 0.002897495
  estimated relative force accuracy = 8.7257201e-06
  using double precision FFTW3
  3d grid and FFT values/proc = 1331 64
Generated 1 of 1 mixed pair_coeff terms from geometric mixing rule
SHAKE stats (type/ave/delta/count) on step 69334
Bond:   1   0.9572    4.05503e-07        6
Angle:  1   104.52    3.46673e-05        3
Per MPI rank memory allocation (min/avg/max) = 9.113 | 9.113 | 9.113 Mbytes
   Step          Temp          E_pair         E_mol          TotEng         Press          Volume    
     69334   305.66938     -28.510765      0             -23.955053     -1970.7267      158.71392    
SHAKE stats (type/ave/delta/count) on step 70000
Bond:   1   0.9572    3.98888e-07        6
Angle:  1   104.52    4.15366e-05        3
     70000   289.1626      -28.340389      0             -24.030695     -1810.9856      156.77681    
     70584   312.89401     -28.864872      0             -24.201484     -2520.2591      155.33294    
Loop time of 0.0666687 on 1 procs for 1250 steps with 9 atoms

Performance: 1619.950 ns/day, 0.015 hours/ns, 18749.416 timesteps/s, 168.745 katom-step/s
239.6% CPU use with 1 MPI tasks x no OpenMP threads

MPI task timing breakdown:
Section |  min time  |  avg time  |  max time  |%varavg| %total
---------------------------------------------------------------
Pair    | 0.034394   | 0.034394   | 0.034394   |   0.0 | 51.59
Bond    | 0.00017251 | 0.00017251 | 0.00017251 |   0.0 |  0.26
Kspace  | 0.014606   | 0.014606   | 0.014606   |   0.0 | 21.91
Neigh   | 0.00085877 | 0.00085877 | 0.00085877 |   0.0 |  1.29
Comm    | 0.0080411  | 0.0080411  | 0.0080411  |   0.0 | 12.06
Output  | 9.2143e-05 | 9.2143e-05 | 9.2143e-05 |   0.0 |  0.14
Modify  | 0.0071695  | 0.0071695  | 0.0071695  |   0.0 | 10.75
Other   |            | 0.001334   |            |       |  2.00

Nlocal:              9 ave           9 max           9 min
Histogram: 1 0 0 0 0 0 0 0 0 0
Nghost:           1827 ave        1827 max        1827 min
Histogram: 1 0 0 0 0 0 0 0 0 0
Neighs:           2441 ave        2441 max        2441 min
Histogram: 1 0 0 0 0 0 0 0 0 0

Total # of neighbors = 2441
Ave neighs/atom = 271.22222
Ave special neighs/atom = 2
Neighbor list builds = 11
Dangerous builds = 0
unfix 21c
unfix 21b
unfix 21a

fix 22a all temp/berendsen 300 300 100
fix 22b all nve
run 1250
PPPM initialization ...
  using 12-bit tables for long-range coulomb (src/kspace.cpp:342)
  G vector (1/distance) = 0.27319851
  grid = 4 4 4
  stencil order = 5
  estimated absolute RMS force accuracy = 0.002835766
  estimated relative force accuracy = 8.5398251e-06
  using double precision FFTW3
  3d grid and FFT values/proc = 1331 64
Generated 1 of 1 mixed pair_coeff terms from geometric mixing rule
SHAKE stats (type/ave/delta/count) on step 70584
Bond:   1   0.9572    4.87117e-07        6
Angle:  1   104.52    3.97711e-05        3
Per MPI rank memory allocation (min/avg/max) = 9.113 | 9.113 | 9.113 Mbytes
   Step          Temp          E_pair         E_mol          TotEng         Press     
     70584   312.89401     -28.864865      0             -24.201477     -2520.0742    
     71000   305.01708     -28.743094      0             -24.197104     -1512.3105    
     71834   304.07838     -28.769279      0             -24.23728      -4217.0833    
Loop time of 0.0686575 on 1 procs for 1250 steps with 9 atoms

Performance: 1573.025 ns/day, 0.015 hours/ns, 18206.309 timesteps/s, 163.857 katom-step/s
103.2% CPU use with 1 MPI tasks x no OpenMP threads

MPI task timing breakdown:
Section |  min time  |  avg time  |  max time  |%varavg| %total
---------------------------------------------------------------
Pair    | 0.035529   | 0.035529   | 0.035529   |   0.0 | 51.75
Bond    | 0.00018412 | 0.00018412 | 0.00018412 |   0.0 |  0.27
Kspace  | 0.015243   | 0.015243   | 0.015243   |   0.0 | 22.20
Neigh   | 0.00081062 | 0.00081062 | 0.00081062 |   0.0 |  1.18
Comm    | 0.0083254  | 0.0083254  | 0.0083254  |   0.0 | 12.13
Output  | 8.4454e-05 | 8.4454e-05 | 8.4454e-05 |   0.0 |  0.12
Modify  | 0.0071619  | 0.0071619  | 0.0071619  |   0.0 | 10.43
Other   |            | 0.001318   |            |       |  1.92

Nlocal:              9 ave           9 max           9 min
Histogram: 1 0 0 0 0 0 0 0 0 0
Nghost:           1791 ave        1791 max        1791 min
Histogram: 1 0 0 0 0 0 0 0 0 0
Neighs:           2432 ave        2432 max        2432 min
Histogram: 1 0 0 0 0 0 0 0 0 0

Total # of neighbors = 2432
Ave neighs/atom = 270.22222
Ave special neighs/atom = 2
Neighbor list builds = 11
Dangerous builds = 0
unfix 22b
unfix 22a

shell cd ..
next defm_id
jump SELF defm_start
print "defm_id = ${defm_id}"
defm_id = 06
shell mkdir defm_${defm_id}
shell mkdir defm_06
shell cd defm_${defm_id}
shell cd defm_06

fix 15a all ave/time 1 25 25 c_thermo_press v_vol file press_vol.data
fix 15b all deform 100 x wiggle ${amp} 2500 y wiggle ${amp} 2500 z wiggle ${amp} 2500
fix 15b all deform 100 x wiggle 0.0537552869033233 2500 y wiggle ${amp} 2500 z wiggle ${amp} 2500
fix 15b all deform 100 x wiggle 0.0537552869033233 2500 y wiggle 0.0537552869033233 2500 z wiggle ${amp} 2500
fix 15b all deform 100 x wiggle 0.0537552869033233 2500 y wiggle 0.0537552869033233 2500 z wiggle 0.0537552869033233 2500
fix 15c all temp/berendsen 300 300 100
fix 15d all nve
run 7500
PPPM initialization ...
  using 12-bit tables for long-range coulomb (src/kspace.cpp:342)
  G vector (1/distance) = 0.27319851
  grid = 4 4 4
  stencil order = 5
  estimated absolute RMS force accuracy = 0.002835766
  estimated relative force accuracy = 8.5398251e-06
  using double precision FFTW3
  3d grid and FFT values/proc = 1331 64
Generated 1 of 1 mixed pair_coeff terms from geometric mixing rule
SHAKE stats (type/ave/delta/count) on step 71834
Bond:   1   0.9572    5.16059e-07        6
Angle:  1   104.52    3.94056e-05        3
Per MPI rank memory allocation (min/avg/max) = 9.113 | 9.113 | 9.113 Mbytes
   Step          Temp          E_pair         E_mol          TotEng         Press          Volume    
     71834   304.07838     -28.769279      0             -24.23728      -4216.8831      155.33294    
     72000   288.82379     -28.526749      0             -24.222105     -2349.6344      157.22885    
     73000   299.03721     -28.555523      0             -24.098658     -3891.8249      156.31149    
     74000   291.34496     -28.842229      0             -24.50001      -2438.8874      151.89042    
     75000   297.49522     -28.404889      0             -23.971005     -2724.5015      160.01447    
     76000   311.74207     -29.120533      0             -24.474313     -3501.7302      151.33596    
     77000   303.80686     -28.757358      0             -24.229405     -4343.6412      157.22885    
     78000   299.727       -28.606187      0             -24.139041     -1681.8328      156.31149    
     79000   292.75895     -28.998263      0             -24.634969     -766.77431      151.89042    
     79334   286.42321     -28.568972      0             -24.300106     -4541.5004      154.93556    
Loop time of 0.457318 on 1 procs for 7500 steps with 9 atoms

Performance: 1416.958 ns/day, 0.017 hours/ns, 16399.979 timesteps/s, 147.600 katom-step/s
98.8% CPU use with 1 MPI tasks x no OpenMP threads

MPI task timing breakdown:
Section |  min time  |  avg time  |  max time  |%varavg| %total
---------------------------------------------------------------
Pair    | 0.24407    | 0.24407    | 0.24407    |   0.0 | 53.37
Bond    | 0.0021446  | 0.0021446  | 0.0021446  |   0.0 |  0.47
Kspace  | 0.091004   | 0.091004   | 0.091004   |   0.0 | 19.90
Neigh   | 0.0054327  | 0.0054327  | 0.0054327  |   0.0 |  1.19
Comm    | 0.048727   | 0.048727   | 0.048727   |   0.0 | 10.66
Output  | 0.00023691 | 0.00023691 | 0.00023691 |   0.0 |  0.05
Modify  | 0.057338   | 0.057338   | 0.057338   |   0.0 | 12.54
Other   |            | 0.008363   |            |       |  1.83

Nlocal:              9 ave           9 max           9 min
Histogram: 1 0 0 0 0 0 0 0 0 0
Nghost:           1827 ave        1827 max        1827 min
Histogram: 1 0 0 0 0 0 0 0 0 0
Neighs:           2450 ave        2450 max        2450 min
Histogram: 1 0 0 0 0 0 0 0 0 0

Total # of neighbors = 2450
Ave neighs/atom = 272.22222
Ave special neighs/atom = 2
Neighbor list builds = 73
Dangerous builds = 0
unfix 15d
unfix 15c
unfix 15b
unfix 15a

print "immed_press = ${immed_press}"
immed_press = -2701.8989277592
print "immed_modulus = ${immed_modulus}"
immed_modulus = 38644.5506872338
print "factor = ${factor}"
factor = 0.992334080931658
if "${defm_id} == 99 || ${factor} == 1" then "jump SELF defm_break"

fix 21a all deform 100 x scale ${factor} y scale ${factor} z scale ${factor} remap v
fix 21a all deform 100 x scale 0.992334080931658 y scale ${factor} z scale ${factor} remap v
fix 21a all deform 100 x scale 0.992334080931658 y scale 0.992334080931658 z scale ${factor} remap v
fix 21a all deform 100 x scale 0.992334080931658 y scale 0.992334080931658 z scale 0.992334080931658 remap v
fix 21b all temp/berendsen 300 300 100
fix 21c all nve
run 1250
PPPM initialization ...
  using 12-bit tables for long-range coulomb (src/kspace.cpp:342)
  G vector (1/distance) = 0.2732566
  grid = 4 4 4
  stencil order = 5
  estimated absolute RMS force accuracy = 0.0028285121
  estimated relative force accuracy = 8.5179803e-06
  using double precision FFTW3
  3d grid and FFT values/proc = 1331 64
Generated 1 of 1 mixed pair_coeff terms from geometric mixing rule
SHAKE stats (type/ave/delta/count) on step 79334
Bond:   1   0.9572    4.42277e-07        6
Angle:  1   104.52    3.69524e-05        3
Per MPI rank memory allocation (min/avg/max) = 9.113 | 9.113 | 9.113 Mbytes
   Step          Temp          E_pair         E_mol          TotEng         Press          Volume    
     79334   287.1609      -28.568983      0             -24.289123     -4532.3758      154.93556    
SHAKE stats (type/ave/delta/count) on step 80000
Bond:   1   0.9572    4.04771e-07        6
Angle:  1   104.52    3.88814e-05        3
     80000   294.30712     -28.92672       0             -24.540352     -1803.6917      153.04484    
     80584   290.78363     -28.916237      0             -24.582383     -356.09636      151.63554    
Loop time of 0.0670274 on 1 procs for 1250 steps with 9 atoms

Performance: 1611.281 ns/day, 0.015 hours/ns, 18649.090 timesteps/s, 167.842 katom-step/s
240.7% CPU use with 1 MPI tasks x no OpenMP threads

MPI task timing breakdown:
Section |  min time  |  avg time  |  max time  |%varavg| %total
---------------------------------------------------------------
Pair    | 0.034786   | 0.034786   | 0.034786   |   0.0 | 51.90
Bond    | 0.00017581 | 0.00017581 | 0.00017581 |   0.0 |  0.26
Kspace  | 0.01438    | 0.01438    | 0.01438    |   0.0 | 21.45
Neigh   | 0.00085861 | 0.00085861 | 0.00085861 |   0.0 |  1.28
Comm    | 0.0081333  | 0.0081333  | 0.0081333  |   0.0 | 12.13
Output  | 9.0248e-05 | 9.0248e-05 | 9.0248e-05 |   0.0 |  0.13
Modify  | 0.0072555  | 0.0072555  | 0.0072555  |   0.0 | 10.82
Other   |            | 0.001348   |            |       |  2.01

Nlocal:              9 ave           9 max           9 min
Histogram: 1 0 0 0 0 0 0 0 0 0
Nghost:           1791 ave        1791 max        1791 min
Histogram: 1 0 0 0 0 0 0 0 0 0
Neighs:           2484 ave        2484 max        2484 min
Histogram: 1 0 0 0 0 0 0 0 0 0

Total # of neighbors = 2484
Ave neighs/atom = 276
Ave special neighs/atom = 2
Neighbor list builds = 12
Dangerous builds = 0
unfix 21c
unfix 21b
unfix 21a

fix 22a all temp/berendsen 300 300 100
fix 22b all nve
run 1250
PPPM initialization ...
  using 12-bit tables for long-range coulomb (src/kspace.cpp:342)
  G vector (1/distance) = 0.27374427
  grid = 4 4 4
  stencil order = 5
  estimated absolute RMS force accuracy = 0.0027682839
  estimated relative force accuracy = 8.3366048e-06
  using double precision FFTW3
  3d grid and FFT values/proc = 1331 64
Generated 1 of 1 mixed pair_coeff terms from geometric mixing rule
SHAKE stats (type/ave/delta/count) on step 80584
Bond:   1   0.9572    5.50028e-07        6
Angle:  1   104.52    4.24337e-05        3
Per MPI rank memory allocation (min/avg/max) = 9.113 | 9.113 | 9.113 Mbytes
   Step          Temp          E_pair         E_mol          TotEng         Press     
     80584   290.78363     -28.916288      0             -24.582434     -355.94256    
     81000   303.05101     -29.103572      0             -24.586884     -3119.6751    
     81834   311.15608     -29.296785      0             -24.659299     -3758.4383    
Loop time of 0.0689997 on 1 procs for 1250 steps with 9 atoms

Performance: 1565.224 ns/day, 0.015 hours/ns, 18116.021 timesteps/s, 163.044 katom-step/s
185.6% CPU use with 1 MPI tasks x no OpenMP threads

MPI task timing breakdown:
Section |  min time  |  avg time  |  max time  |%varavg| %total
---------------------------------------------------------------
Pair    | 0.035635   | 0.035635   | 0.035635   |   0.0 | 51.65
Bond    | 0.00018325 | 0.00018325 | 0.00018325 |   0.0 |  0.27
Kspace  | 0.014896   | 0.014896   | 0.014896   |   0.0 | 21.59
Neigh   | 0.00087026 | 0.00087026 | 0.00087026 |   0.0 |  1.26
Comm    | 0.0085438  | 0.0085438  | 0.0085438  |   0.0 | 12.38
Output  | 8.5127e-05 | 8.5127e-05 | 8.5127e-05 |   0.0 |  0.12
Modify  | 0.0074102  | 0.0074102  | 0.0074102  |   0.0 | 10.74
Other   |            | 0.001376   |            |       |  1.99

Nlocal:              9 ave           9 max           9 min
Histogram: 1 0 0 0 0 0 0 0 0 0
Nghost:           1797 ave        1797 max        1797 min
Histogram: 1 0 0 0 0 0 0 0 0 0
Neighs:           2482 ave        2482 max        2482 min
Histogram: 1 0 0 0 0 0 0 0 0 0

Total # of neighbors = 2482
Ave neighs/atom = 275.77778
Ave special neighs/atom = 2
Neighbor list builds = 12
Dangerous builds = 0
unfix 22b
unfix 22a

shell cd ..
next defm_id
jump SELF defm_start
print "defm_id = ${defm_id}"
defm_id = 07
shell mkdir defm_${defm_id}
shell mkdir defm_07
shell cd defm_${defm_id}
shell cd defm_07

fix 15a all ave/time 1 25 25 c_thermo_press v_vol file press_vol.data
fix 15b all deform 100 x wiggle ${amp} 2500 y wiggle ${amp} 2500 z wiggle ${amp} 2500
fix 15b all deform 100 x wiggle 0.0533253445949283 2500 y wiggle ${amp} 2500 z wiggle ${amp} 2500
fix 15b all deform 100 x wiggle 0.0533253445949283 2500 y wiggle 0.0533253445949283 2500 z wiggle ${amp} 2500
fix 15b all deform 100 x wiggle 0.0533253445949283 2500 y wiggle 0.0533253445949283 2500 z wiggle 0.0533253445949283 2500
fix 15c all temp/berendsen 300 300 100
fix 15d all nve
run 7500
PPPM initialization ...
  using 12-bit tables for long-range coulomb (src/kspace.cpp:342)
  G vector (1/distance) = 0.27374427
  grid = 4 4 4
  stencil order = 5
  estimated absolute RMS force accuracy = 0.0027682839
  estimated relative force accuracy = 8.3366048e-06
  using double precision FFTW3
  3d grid and FFT values/proc = 1331 64
Generated 1 of 1 mixed pair_coeff terms from geometric mixing rule
SHAKE stats (type/ave/delta/count) on step 81834
Bond:   1   0.9572    4.86584e-07        6
Angle:  1   104.52    3.84405e-05        3
Per MPI rank memory allocation (min/avg/max) = 9.113 | 9.113 | 9.113 Mbytes
   Step          Temp          E_pair         E_mol          TotEng         Press          Volume    
     81834   311.15608     -29.296785      0             -24.659299     -3758.2059      151.63554    
     82000   310.96002     -29.186412      0             -24.551848     -3439.1783      153.48633    
     83000   284.51512     -28.75291       0             -24.512483     -5041.1663      152.5908     
     84000   292.57769     -29.210853      0             -24.85026      -4454.1788      148.27497    
     85000   298.23029     -28.864937      0             -24.420098     -4405.6432      156.20564    
     86000   298.7052      -29.34064       0             -24.888723     -3299.0041      147.73371    
     87000   289.21346     -28.978617      0             -24.668165     -4657.3583      153.48633    
     88000   298.55599     -29.025431      0             -24.575738     -2556.7662      152.5908     
     89000   307.50218     -29.537217      0             -24.954189     -4120.7552      148.27497    
     89334   295.43025     -29.134078      0             -24.73097      -1895.5648      151.24762    
Loop time of 0.472945 on 1 procs for 7500 steps with 9 atoms

Performance: 1370.139 ns/day, 0.018 hours/ns, 15858.087 timesteps/s, 142.723 katom-step/s
98.7% CPU use with 1 MPI tasks x no OpenMP threads

MPI task timing breakdown:
Section |  min time  |  avg time  |  max time  |%varavg| %total
---------------------------------------------------------------
Pair    | 0.25752    | 0.25752    | 0.25752    |   0.0 | 54.45
Bond    | 0.0021979  | 0.0021979  | 0.0021979  |   0.0 |  0.46
Kspace  | 0.091417   | 0.091417   | 0.091417   |   0.0 | 19.33
Neigh   | 0.0053888  | 0.0053888  | 0.0053888  |   0.0 |  1.14
Comm    | 0.049862   | 0.049862   | 0.049862   |   0.0 | 10.54
Output  | 0.00023123 | 0.00023123 | 0.00023123 |   0.0 |  0.05
Modify  | 0.057995   | 0.057995   | 0.057995   |   0.0 | 12.26
Other   |            | 0.00833    |            |       |  1.76

Nlocal:              9 ave           9 max           9 min
Histogram: 1 0 0 0 0 0 0 0 0 0
Nghost:           1863 ave        1863 max        1863 min
Histogram: 1 0 0 0 0 0 0 0 0 0
Neighs:           2498 ave        2498 max        2498 min
Histogram: 1 0 0 0 0 0 0 0 0 0

Total # of neighbors = 2498
Ave neighs/atom = 277.55556
Ave special neighs/atom = 2
Neighbor list builds = 72
Dangerous builds = 0
unfix 15d
unfix 15c
unfix 15b
unfix 15a

print "immed_press = ${immed_press}"
immed_press = -2539.93629622074
print "immed_modulus = ${immed_modulus}"
immed_modulus = 73435.686741196
print "factor = ${factor}"
factor = 0.99233306139244
if "${defm_id} == 99 || ${factor} == 1" then "jump SELF defm_break"

fix 21a all deform 100 x scale ${factor} y scale ${factor} z scale ${factor} remap v
fix 21a all deform 100 x scale 0.99233306139244 y scale ${factor} z scale ${factor} remap v
fix 21a all deform 100 x scale 0.99233306139244 y scale 0.99233306139244 z scale ${factor} remap v
fix 21a all deform 100 x scale 0.99233306139244 y scale 0.99233306139244 z scale 0.99233306139244 remap v
fix 21b all temp/berendsen 300 300 100
fix 21c all nve
run 1250
PPPM initialization ...
  using 12-bit tables for long-range coulomb (src/kspace.cpp:342)
  G vector (1/distance) = 0.27380222
  grid = 4 4 4
  stencil order = 5
  estimated absolute RMS force accuracy = 0.0027612054
  estimated relative force accuracy = 8.315288e-06
[...]
   2335000   300.11524     -31.234776      0             -26.761844      3.8590952    
   2336000   299.94708     -31.23225       0             -26.761823      15.024354    
   2337000   299.92617     -31.231968      0             -26.761854     -0.81561169   
   2338000   299.99091     -31.232825      0             -26.761745     -6.6113794    
   2339000   300.03135     -31.233482      0             -26.761799     -9.9639504    
SHAKE stats (type/ave/delta/count) on step 2340000
Bond:   1   0.9572    8.80329e-07        6
Angle:  1   104.52    6.09125e-05        3
   2340000   300.00503     -31.23283       0             -26.76154       17.634983    
   2341000   299.94851     -31.232065      0             -26.761617     -4.1346421    
   2342000   300.07066     -31.233748      0             -26.76148      -12.745663    
   2343000   300.01867     -31.233296      0             -26.761802     -1.3926596    
   2344000   299.9228      -31.231585      0             -26.761521      25.716422    
   2345000   299.9329      -31.231913      0             -26.761698      9.1523238    
   2346000   300.02362     -31.233111      0             -26.761544     -18.98694     
   2347000   300.11039     -31.234445      0             -26.761585      4.6855719    
   2348000   299.96303     -31.231982      0             -26.761318      15.093736    
   2349000   299.95787     -31.232153      0             -26.761566     -5.6392576    
SHAKE stats (type/ave/delta/count) on step 2350000
Bond:   1   0.9572    8.81093e-07        6
Angle:  1   104.52    6.05214e-05        3
   2350000   300.00877     -31.232693      0             -26.761347     -18.742009    
   2351000   299.99488     -31.23284       0             -26.761701      2.5497517    
   2352000   299.96426     -31.232079      0             -26.761396      18.19672     
   2353000   299.94718     -31.232191      0             -26.761763     -11.066739    
   2354000   300.09938     -31.234125      0             -26.761429     -2.694259     
   2355000   300.04633     -31.233507      0             -26.761601      3.3566181    
   2356000   299.92648     -31.231394      0             -26.761275      13.895475    
   2357000   299.93387     -31.231857      0             -26.761627     -10.509351    
   2358000   300.00176     -31.232542      0             -26.7613        4.1773976    
   2359000   300.07509     -31.2342        0             -26.761866      5.9043782    
SHAKE stats (type/ave/delta/count) on step 2360000
Bond:   1   0.9572    8.7852e-07         6
Angle:  1   104.52    6.10419e-05        3
   2360000   299.9592      -31.232094      0             -26.761487      16.220862    
   2361000   299.99203     -31.232918      0             -26.761822     -7.3651598    
   2362000   300.04979     -31.233366      0             -26.761409     -4.2643878    
   2363000   299.98184     -31.23272       0             -26.761776     -2.5473194    
   2364000   299.93187     -31.231476      0             -26.761276      12.150809    
   2365000   299.92984     -31.231782      0             -26.761612     -9.8543989    
   2366000   300.0984      -31.234034      0             -26.761353     -17.585646    
   2367000   300.06007     -31.23399       0             -26.761879      3.7099927    
   2368000   299.94663     -31.231801      0             -26.761381      21.91634     
   2369000   299.96524     -31.232424      0             -26.761727     -0.048809715  
SHAKE stats (type/ave/delta/count) on step 2370000
Bond:   1   0.9572    8.74622e-07        6
Angle:  1   104.52    6.13893e-05        3
   2370000   299.9927      -31.2323        0             -26.761193     -15.358149    
   2371000   300.02949     -31.233271      0             -26.761617      10.187083    
   2372000   299.93145     -31.23131       0             -26.761116      18.89537     
   2373000   300.00713     -31.232899      0             -26.761578     -8.908349     
   2374000   300.08948     -31.233648      0             -26.761099     -16.660571    
   2375000   299.99388     -31.23274       0             -26.761616      13.844548    
   2376000   299.92717     -31.23126       0             -26.76113       13.635996    
   2377000   299.91813     -31.231678      0             -26.761683     -8.1174184    
   2378000   300.07375     -31.233411      0             -26.761097     -10.596146    
   2379000   300.04418     -31.233394      0             -26.76152       6.6481486    
SHAKE stats (type/ave/delta/count) on step 2380000
Bond:   1   0.9572    8.77696e-07        6
Angle:  1   104.52    6.11952e-05        3
   2380000   299.95952     -31.231557      0             -26.760945      5.2383238    
   2381000   300.0099      -31.23285       0             -26.761488     -16.274324    
   2382000   300.01068     -31.232501      0             -26.761127      6.6248794    
   2383000   299.99683     -31.232922      0             -26.761754      2.1671989    
   2384000   299.89682     -31.230885      0             -26.761208      20.881894    
   2385000   299.99656     -31.232868      0             -26.761704     -15.634205    
   2386000   300.10767     -31.233985      0             -26.761166      4.0597617    
   2387000   300.01053     -31.233002      0             -26.76163      -2.9184389    
   2388000   299.95072     -31.231523      0             -26.761042      10.599998    
   2389000   299.93237     -31.231753      0             -26.761546     -11.108486    
SHAKE stats (type/ave/delta/count) on step 2390000
Bond:   1   0.9572    8.8091e-07         6
Angle:  1   104.52    6.04817e-05        3
   2390000   300.04608     -31.232974      0             -26.761072     -15.226182    
   2391000   300.00499     -31.233057      0             -26.761767      12.987922    
   2392000   299.94774     -31.231628      0             -26.761192      11.137419    
   2393000   300.04896     -31.233715      0             -26.76177      -3.0491099    
   2394000   300.04256     -31.232967      0             -26.761118     -16.75721     
   2395000   299.99267     -31.232702      0             -26.761596      18.985276    
   2396000   299.88004     -31.230433      0             -26.761006      12.269487    
   2397000   299.97494     -31.232402      0             -26.76156      -12.778951    
   2398000   300.09432     -31.233672      0             -26.761051     -10.643417    
   2399000   300.00811     -31.232994      0             -26.761658      21.918148    
SHAKE stats (type/ave/delta/count) on step 2400000
Bond:   1   0.9572    8.79083e-07        6
Angle:  1   104.52    6.07556e-05        3
   2400000   299.98259     -31.231981      0             -26.761025      12.086975    
   2401000   299.97147     -31.23242       0             -26.76163      -14.33136     
   2402000   300.03898     -31.232679      0             -26.760882     -7.7876361    
   2403000   299.96383     -31.232172      0             -26.761496      9.4492094    
   2404000   299.91526     -31.230813      0             -26.760861      2.1223       
   2405000   300.05818     -31.233515      0             -26.761433     -19.128981    
   2406000   300.06734     -31.23321       0             -26.760992      1.5757384    
   2407000   300.00845     -31.23295       0             -26.761609      6.2992953    
   2408000   299.89602     -31.230753      0             -26.761087      12.349185    
   2409000   299.96708     -31.232301      0             -26.761576     -9.5349976    
SHAKE stats (type/ave/delta/count) on step 2410000
Bond:   1   0.9572    8.73561e-07        6
Angle:  1   104.52    6.16787e-05        3
   2410000   300.06375     -31.233068      0             -26.760902      2.6164598    
   2411000   299.97596     -31.232324      0             -26.761467      2.6377302    
   2412000   299.9969      -31.232116      0             -26.760947      6.8017166    
   2413000   300.01912     -31.233014      0             -26.761514     -11.703728    
   2414000   300.05453     -31.233009      0             -26.760982     -5.5645594    
   2415000   299.94648     -31.232136      0             -26.761719      11.025511    
   2416000   299.88446     -31.230617      0             -26.761124      12.168939    
   2417000   300.04551     -31.233603      0             -26.761709     -11.822107    
   2418000   300.06281     -31.233323      0             -26.761172     -8.8624682    
   2419000   300.02018     -31.233098      0             -26.761582      18.428374    
SHAKE stats (type/ave/delta/count) on step 2420000
Bond:   1   0.9572    8.73441e-07        6
Angle:  1   104.52    6.16323e-05        3
   2420000   299.93655     -31.231313      0             -26.761043      1.8451385    
   2421000   299.98678     -31.232625      0             -26.761607     -13.251015    
   2422000   300.04145     -31.233127      0             -26.761294     -9.205648     
   2423000   299.92963     -31.231914      0             -26.761748      33.120605    
   2424000   299.98436     -31.232216      0             -26.761234      0.84589521   
   2425000   300.04695     -31.233585      0             -26.761671     -14.734932    
   2426000   300.07627     -31.233444      0             -26.761092     -5.2888124    
   2427000   299.95751     -31.23211       0             -26.761528      13.349807    
   2428000   299.88012     -31.230469      0             -26.761041     -0.43507875   
   2429000   300.02749     -31.233097      0             -26.761472     -21.705912    
SHAKE stats (type/ave/delta/count) on step 2430000
Bond:   1   0.9572    8.79659e-07        6
Angle:  1   104.52    6.07455e-05        3
   2430000   300.0328      -31.232815      0             -26.761111      5.8458227    
   2431000   300.00646     -31.232918      0             -26.761607      8.024065     
   2432000   299.97589     -31.231993      0             -26.761137      6.1199859    
   2433000   300.02717     -31.233207      0             -26.761587     -7.2617961    
   2434000   300.04345     -31.232917      0             -26.761055      0.67690132   
   2435000   299.89382     -31.23106       0             -26.761428      11.411312    
   2436000   299.95605     -31.231608      0             -26.761048      0.10012738   
   2437000   300.04682     -31.233395      0             -26.761482     -6.2800962    
   2438000   300.07894     -31.23368       0             -26.761288     -5.5110683    
   2439000   299.98245     -31.232594      0             -26.761641      14.032012    
SHAKE stats (type/ave/delta/count) on step 2440000
Bond:   1   0.9572    8.78908e-07        6
Angle:  1   104.52    6.06261e-05        3
   2440000   299.90812     -31.231087      0             -26.761242      8.1492474    
   2441000   300.0311      -31.233296      0             -26.761618     -14.986797    
   2442000   299.99536     -31.232425      0             -26.761279     -3.3036655    
   2443000   299.96814     -31.232309      0             -26.761569      12.24605     
   2444000   299.99227     -31.232339      0             -26.76124      -0.34217403   
   2445000   300.06142     -31.233832      0             -26.761701     -19.235952    
   2446000   300.06364     -31.233686      0             -26.761522      1.3957627    
   2447000   299.88805     -31.231256      0             -26.76171       28.728667    
   2448000   299.94007     -31.231865      0             -26.761543     -2.2674092    
   2449000   300.0276      -31.233437      0             -26.76181      -14.014254    
SHAKE stats (type/ave/delta/count) on step 2450000
Bond:   1   0.9572    8.7371e-07         6
Angle:  1   104.52    6.15703e-05        3
   2450000   300.05194     -31.233372      0             -26.761383      1.7529543    
   2451000   299.99413     -31.232753      0             -26.761626      18.224678    
   2452000   299.9515      -31.231862      0             -26.761369     -13.271111    
   2453000   300.06006     -31.233704      0             -26.761594     -11.524453    
   2454000   299.97744     -31.232385      0             -26.761506      3.6291305    
   2455000   299.92405     -31.231833      0             -26.76175       19.241033    
   2456000   299.98388     -31.232464      0             -26.761489     -7.7597888    
   2457000   300.06997     -31.233891      0             -26.761633     -3.3492525    
   2458000   300.07927     -31.233769      0             -26.761372      1.6044289    
   2459000   299.90796     -31.231294      0             -26.761451      13.210858    
SHAKE stats (type/ave/delta/count) on step 2460000
Bond:   1   0.9572    8.72834e-07        6
Angle:  1   104.52    6.17078e-05        3
   2460000   299.9515      -31.231819      0             -26.761327     -0.24694977   
   2461000   300.01557     -31.233046      0             -26.761599     -9.7522694    
   2462000   300.00377     -31.232816      0             -26.761544      4.0898995    
   2463000   299.9823      -31.232574      0             -26.761623      13.468966    
   2464000   299.98538     -31.232517      0             -26.76152       4.835232     
   2465000   300.09811     -31.234311      0             -26.761634     -16.171734    
   2466000   299.98286     -31.232425      0             -26.761465     -4.6900873    
   2467000   299.89984     -31.231249      0             -26.761526      13.606295    
   2468000   299.96926     -31.23225       0             -26.761493     -7.3671591    
   2469000   300.04878     -31.233565      0             -26.761623     -14.953757    
SHAKE stats (type/ave/delta/count) on step 2470000
Bond:   1   0.9572    8.79094e-07        6
Angle:  1   104.52    6.08191e-05        3
   2470000   300.07163     -31.233994      0             -26.761711      6.036806     
   2471000   299.93394     -31.231949      0             -26.761719      22.002579    
   2472000   299.98988     -31.232886      0             -26.761821     -3.8138923    
   2473000   300.0261      -31.233247      0             -26.761643     -12.094511    
   2474000   299.96099     -31.232301      0             -26.761667      15.525117    
   2475000   299.95192     -31.232151      0             -26.761652      14.648376    
   2476000   299.99253     -31.232825      0             -26.761722     -16.129796    
   2477000   300.11985     -31.234629      0             -26.761628     -5.4022162    
   2478000   300.00274     -31.233138      0             -26.761882      6.3069433    
   2479000   299.90484     -31.231615      0             -26.761818      22.475413    
SHAKE stats (type/ave/delta/count) on step 2480000
Bond:   1   0.9572    8.80627e-07        6
Angle:  1   104.52    6.02696e-05        3
   2480000   299.9715      -31.23268       0             -26.76189      -20.469472    
   2481000   300.01652     -31.233151      0             -26.76169       3.5249628    
   2482000   300.03472     -31.233476      0             -26.761743     -2.2963195    
   2483000   299.94506     -31.231946      0             -26.76155       16.032103    
   2484000   300.03143     -31.233412      0             -26.761728     -9.8724368    
   2485000   300.0593      -31.233802      0             -26.761703     -5.9025519    
   2486000   299.93963     -31.232222      0             -26.761907      9.8724127    
   2487000   299.92736     -31.231756      0             -26.761624      15.765168    
   2488000   299.98044     -31.232742      0             -26.761818      3.7254663    
   2489000   300.10977     -31.234416      0             -26.761565     -18.319634    
SHAKE stats (type/ave/delta/count) on step 2490000
Bond:   1   0.9572    8.78501e-07        6
Angle:  1   104.52    6.10911e-05        3
   2490000   300.01284     -31.233144      0             -26.761738      3.7313516    
   2491000   299.92976     -31.231641      0             -26.761473      7.6043235    
   2492000   300.00143     -31.232991      0             -26.761755     -6.1199303    
   2493000   299.99588     -31.232619      0             -26.761465     -16.382312    
   2494000   299.98847     -31.232928      0             -26.761885      13.67224     
   2495000   299.93457     -31.231856      0             -26.761616      15.587622    
   2496000   300.05557     -31.234052      0             -26.762008     -10.560057    
   2497000   300.09248     -31.234216      0             -26.761623     -5.6344523    
   2498000   299.94461     -31.232264      0             -26.761875      16.054445    
   2499000   299.92656     -31.23168       0             -26.761559      17.35075     
SHAKE stats (type/ave/delta/count) on step 2500000
Bond:   1   0.9572    8.73227e-07        6
Angle:  1   104.52    6.15379e-05        3
   2500000   299.96758     -31.23267       0             -26.761938     -20.634603    
   2501000   300.07367     -31.234107      0             -26.761794      4.7416704    
   2502000   299.99916     -31.233319      0             -26.762117      10.853432    
   2503000   299.95377     -31.232311      0             -26.761785      15.477284    
   2504000   300.04884     -31.234092      0             -26.762149     -20.737049    
   2505000   300.00044     -31.232845      0             -26.761624      0.8434521    
   2506000   299.95167     -31.23255       0             -26.762055      2.8969407    
   2507000   299.91534     -31.231559      0             -26.761606      4.8753353    
   2508000   300.0502      -31.233913      0             -26.761949     -12.73846     
   2509000   300.10582     -31.234516      0             -26.761724     -0.84182589   
SHAKE stats (type/ave/delta/count) on step 2510000
Bond:   1   0.9572    8.77419e-07        6
Angle:  1   104.52    6.10825e-05        3
   2510000   299.95794     -31.232808      0             -26.762219      10.355844    
   2511000   299.95274     -31.232153      0             -26.761643      19.887624    
   2512000   299.97547     -31.232999      0             -26.76215      -5.6751341    
   2513000   300.03004     -31.233111      0             -26.761448     -5.7102879    
   2514000   299.96517     -31.232673      0             -26.761977      8.2253826    
   2515000   299.95953     -31.232053      0             -26.761441      10.67166     
   2516000   300.09228     -31.234551      0             -26.76196      -8.5972562    
   2517000   300.02195     -31.233091      0             -26.761549     -16.612529    
   2518000   299.94357     -31.232399      0             -26.762025      21.92099     
   2519000   299.9079      -31.231373      0             -26.76153       6.241383     
   2519334   300.11527     -31.234515      0             -26.761582     -1.093069     
Loop time of 75.6319 on 1 procs for 1000000 steps with 9 atoms

Performance: 1142.375 ns/day, 0.021 hours/ns, 13221.937 timesteps/s, 118.997 katom-step/s
95.3% CPU use with 1 MPI tasks x no OpenMP threads

MPI task timing breakdown:
Section |  min time  |  avg time  |  max time  |%varavg| %total
---------------------------------------------------------------
Pair    | 43.059     | 43.059     | 43.059     |   0.0 | 56.93
Bond    | 0.18071    | 0.18071    | 0.18071    |   0.0 |  0.24
Kspace  | 12.902     | 12.902     | 12.902     |   0.0 | 17.06
Neigh   | 0.84349    | 0.84349    | 0.84349    |   0.0 |  1.12
Comm    | 9.3005     | 9.3005     | 9.3005     |   0.0 | 12.30
Output  | 0.088684   | 0.088684   | 0.088684   |   0.0 |  0.12
Modify  | 7.7111     | 7.7111     | 7.7111     |   0.0 | 10.20
Other   |            | 1.547      |            |       |  2.04

Nlocal:              9 ave           9 max           9 min
Histogram: 1 0 0 0 0 0 0 0 0 0
Nghost:           2121 ave        2121 max        2121 min
Histogram: 1 0 0 0 0 0 0 0 0 0
Neighs:           3333 ave        3333 max        3333 min
Histogram: 1 0 0 0 0 0 0 0 0 0

Total # of neighbors = 3333
Ave neighs/atom = 370.33333
Ave special neighs/atom = 2
Neighbor list builds = 8334
Dangerous builds = 0
unfix 42a

Total wall time: 0:04:27
