LAMMPS Description # full

9 atoms
6 bonds
3 angles
0 dihedrals
0 impropers

2 atom types
1 bond types
1 angle types
0 dihedral types
0 improper types

0 5.6409 xlo xhi
0 5.6409 ylo yhi
0 5.6409 zlo zhi

Masses

1 15.9990 # O Water (TIP3P) O 77 #
2 1.0080 # H Water (TIP3P) H 78 #

Pair Coeffs

1 0.1521 3.1507
2 0.0000 0.0000

Bond Coeffs

1 529.6000 0.9572

Angle Coeffs

1 34.0500 104.5200

Atoms

1 1 1 -0.8340 3.9180 0.8209 3.7773
2 1 2 0.4170 3.7493 0.9862 2.8497
3 1 2 0.4170 3.5280 1.4514 4.3828
4 2 1 -0.8340 -0.9547 2.0007 0.6707
5 2 2 0.4170 -1.8531 1.6705 0.6592
6 2 2 0.4170 -0.8646 2.9458 0.5490
7 3 1 -0.8340 -1.6893 3.8031 -1.2199
8 3 2 0.4170 -1.4045 4.1485 -2.0660
9 3 2 0.4170 -2.1806 2.9825 -1.2575

Bonds

1 1 1 2
2 1 1 3
3 1 4 5
4 1 4 6
5 1 7 8
6 1 7 9

Angles

1 1 2 1 3
2 1 5 4 6
3 1 8 7 9

