ITEM: TIMESTEP
0
ITEM: NUMBER OF ATOMS
9
ITEM: BOX BOUNDS pp pp pp
0.0000000000000000e+00 5.6409000000000002e+00
0.0000000000000000e+00 5.6409000000000002e+00
0.0000000000000000e+00 5.6409000000000002e+00
ITEM: ATOMS id xu yu zu
1 3.918 0.8209 3.7773
2 3.7493 0.9862 2.8497
3 3.528 1.4514 4.3828
4 -0.9547 2.0007 0.6707
5 -1.8531 1.6705 0.6592
6 -0.8646 2.9458 0.549
7 -1.6893 3.8031 -1.2199
8 -1.4045 4.1485 -2.066
9 -2.1806 2.9825 -1.2575
ITEM: TIMESTEP
834
ITEM: NUMBER OF ATOMS
9
ITEM: BOX BOUNDS pp pp pp
0.0000000000000000e+00 5.6409000000000002e+00
0.0000000000000000e+00 5.6409000000000002e+00
0.0000000000000000e+00 5.6409000000000002e+00
ITEM: ATOMS id xu yu zu
1 4.18174 0.941454 3.70711
2 4.20708 1.01763 2.73186
3 4.12782 1.89841 3.87801
4 -1.45475 1.57066 0.956485
5 -1.40744 1.04397 0.145921
6 -1.50352 2.44331 0.541737
7 -1.7883 3.69952 -1.19977
8 -1.40523 4.55956 -1.4448
9 -2.71573 3.93881 -1.29568
ITEM: TIMESTEP
1000
ITEM: NUMBER OF ATOMS
9
ITEM: BOX BOUNDS pp pp pp
0.0000000000000000e+00 5.6409000000000002e+00
0.0000000000000000e+00 5.6409000000000002e+00
0.0000000000000000e+00 56.409000000000002e+00
ITEM: ATOMS id xu yu zu
1 4.2375 1.00772 3.67442
2 4.24531 0.963661 2.71827
3 4.16361 1.9416 3.87103
4 -1.45652 1.45077 0.891479
5 -1.37343 0.956133 0.0762091
6 -1.50562 2.36535 0.61335
7 -1.83925 3.76292 -1.12144
8 -1.50114 4.60317 -1.4311
9 -2.77391 3.91652 -0.983385
