LAMMPS Description # full

10 atoms
8 bonds
6 angles
4 dihedrals
2 impropers

4 atom types
3 bond types
2 angle types
1 dihedral types
1 improper types

0 12.5393 xlo xhi
0 11.5552 ylo yhi
0 11.8911 zlo zhi

Masses

1 15.0350 # CH3 Isobutane C 84 #
2 15.9990 # OH Alcohol Hydroxyl O 104 #
3 1.0080 # H Alcohol Hydroxyl H 105 #
4 13.0190 # CH Isopropanol C 108 #

Pair Coeffs

1 0.1600 3.9100
2 0.1700 3.0700
3 0.0000 0.0000
4 0.0800 3.8500

Bond Coeffs

1 260.0000 1.5260
2 553.0000 0.9450
3 386.0000 1.4250

Angle Coeffs

1 55.0000 108.5000
2 80.0000 109.5000

Dihedral Coeffs

1 0.0000 0.0000 1.0000 0.0000

Improper Coeffs

1 14.0000 -1 3

Atoms

1 1 1 0.0000 -0.9433 5.2115 6.3684
2 1 4 0.2650 -0.4781 5.7410 7.7219
3 1 1 0.0000 -1.4007 6.8026 8.3140
4 1 2 -0.7000 0.8536 6.2450 7.6673
5 1 3 0.4350 0.8690 6.9891 7.0850
6 2 1 0.0000 -0.9433 -0.5660 6.3684
7 2 4 0.2650 -0.4781 -0.0366 7.7219
8 2 1 0.0000 -1.4007 1.0250 8.3140
9 2 2 -0.7000 0.8536 0.4674 7.6673
10 2 3 0.4350 0.8690 1.2115 7.0850

Bonds

1 1 1 2
2 1 2 3
3 3 2 4
4 2 4 5
5 1 6 7
6 1 7 8
7 3 7 9
8 2 9 10

Angles

1 2 1 2 4
2 2 3 2 4
3 1 2 4 5
4 2 6 7 9
5 2 8 7 9
6 1 7 9 10

Dihedrals

1 1 1 2 4 5
2 1 3 2 4 5
3 1 6 7 9 10
4 1 8 7 9 10

Impropers

1 1 1 3 2 4
2 1 6 8 7 9

