Lammps Data Files By Teng 

100 atoms 
100 bonds 
100 angles 
100 dihedrals 
0 impropers 

1 atom types 
2 bond types 
1 angle types 
2 dihedral types 

0 123.387878  xlo xhi 
-50 50  ylo yhi 
-50 50  zlo zhi 

Masses 

 1  13.0191 

Pair Coeffs 

 1   0.06400   4.010000 

Bond Coeffs 

 1     128.263	2.068	1.368 
 2     100.025	2.032	1.421 

Angle Coeffs 

 1   124.5   83.83	-52.26	23.31 

Dihedral Coeffs 

 1     27.48	-1.32	-49.16	2.54	23.37 
 2     12.70	-1.95	-15.61	3.77	4.68  

Atoms 

 1 1 1 0 -0.602000 0.247000 0.210500 
 2 1 1 0 0.602000 -0.247000 -0.210500 
 3 1 1 0 1.865758 0.247000 0.210500 
 4 1 1 0 3.069758 -0.247000 -0.210500 
 5 1 1 0 4.333515 0.247000 0.210500 
 6 1 1 0 5.537515 -0.247000 -0.210500 
 7 1 1 0 6.801273 0.247000 0.210500 
 8 1 1 0 8.005273 -0.247000 -0.210500 
 9 1 1 0 9.269030 0.247000 0.210500 
 10 1 1 0 10.473030 -0.247000 -0.210500 
 11 1 1 0 11.736788 0.247000 0.210500 
 12 1 1 0 12.940788 -0.247000 -0.210500 
 13 1 1 0 14.204545 0.247000 0.210500 
 14 1 1 0 15.408545 -0.247000 -0.210500 
 15 1 1 0 16.672303 0.247000 0.210500 
 16 1 1 0 17.876303 -0.247000 -0.210500 
 17 1 1 0 19.140060 0.247000 0.210500 
 18 1 1 0 20.344060 -0.247000 -0.210500 
 19 1 1 0 21.607818 0.247000 0.210500 
 20 1 1 0 22.811818 -0.247000 -0.210500 
 21 1 1 0 24.075576 0.247000 0.210500 
 22 1 1 0 25.279576 -0.247000 -0.210500 
 23 1 1 0 26.543333 0.247000 0.210500 
 24 1 1 0 27.747333 -0.247000 -0.210500 
 25 1 1 0 29.011091 0.247000 0.210500 
 26 1 1 0 30.215091 -0.247000 -0.210500 
 27 1 1 0 31.478848 0.247000 0.210500 
 28 1 1 0 32.682848 -0.247000 -0.210500 
 29 1 1 0 33.946606 0.247000 0.210500 
 30 1 1 0 35.150606 -0.247000 -0.210500 
 31 1 1 0 36.414363 0.247000 0.210500 
 32 1 1 0 37.618363 -0.247000 -0.210500 
 33 1 1 0 38.882121 0.247000 0.210500 
 34 1 1 0 40.086121 -0.247000 -0.210500 
 35 1 1 0 41.349878 0.247000 0.210500 
 36 1 1 0 42.553878 -0.247000 -0.210500 
 37 1 1 0 43.817636 0.247000 0.210500 
 38 1 1 0 45.021636 -0.247000 -0.210500 
 39 1 1 0 46.285393 0.247000 0.210500 
 40 1 1 0 47.489393 -0.247000 -0.210500 
 41 1 1 0 48.753151 0.247000 0.210500 
 42 1 1 0 49.957151 -0.247000 -0.210500 
 43 1 1 0 51.220909 0.247000 0.210500 
 44 1 1 0 52.424909 -0.247000 -0.210500 
 45 1 1 0 53.688666 0.247000 0.210500 
 46 1 1 0 54.892666 -0.247000 -0.210500 
 47 1 1 0 56.156424 0.247000 0.210500 
 48 1 1 0 57.360424 -0.247000 -0.210500 
 49 1 1 0 58.624181 0.247000 0.210500 
 50 1 1 0 59.828181 -0.247000 -0.210500 
 51 1 1 0 61.091939 0.247000 0.210500 
 52 1 1 0 62.295939 -0.247000 -0.210500 
 53 1 1 0 63.559696 0.247000 0.210500 
 54 1 1 0 64.763696 -0.247000 -0.210500 
 55 1 1 0 66.027454 0.247000 0.210500 
 56 1 1 0 67.231454 -0.247000 -0.210500 
 57 1 1 0 68.495211 0.247000 0.210500 
 58 1 1 0 69.699211 -0.247000 -0.210500 
 59 1 1 0 70.962969 0.247000 0.210500 
 60 1 1 0 72.166969 -0.247000 -0.210500 
 61 1 1 0 73.430727 0.247000 0.210500 
 62 1 1 0 74.634726 -0.247000 -0.210500 
 63 1 1 0 75.898484 0.247000 0.210500 
 64 1 1 0 77.102484 -0.247000 -0.210500 
 65 1 1 0 78.366242 0.247000 0.210500 
 66 1 1 0 79.570242 -0.247000 -0.210500 
 67 1 1 0 80.833999 0.247000 0.210500 
 68 1 1 0 82.037999 -0.247000 -0.210500 
 69 1 1 0 83.301757 0.247000 0.210500 
 70 1 1 0 84.505757 -0.247000 -0.210500 
 71 1 1 0 85.769514 0.247000 0.210500 
 72 1 1 0 86.973514 -0.247000 -0.210500 
 73 1 1 0 88.237272 0.247000 0.210500 
 74 1 1 0 89.441272 -0.247000 -0.210500 
 75 1 1 0 90.705029 0.247000 0.210500 
 76 1 1 0 91.909029 -0.247000 -0.210500 
 77 1 1 0 93.172787 0.247000 0.210500 
 78 1 1 0 94.376787 -0.247000 -0.210500 
 79 1 1 0 95.640544 0.247000 0.210500 
 80 1 1 0 96.844544 -0.247000 -0.210500 
 81 1 1 0 98.108302 0.247000 0.210500 
 82 1 1 0 99.312302 -0.247000 -0.210500 
 83 1 1 0 100.576060 0.247000 0.210500 
 84 1 1 0 101.780060 -0.247000 -0.210500 
 85 1 1 0 103.043817 0.247000 0.210500 
 86 1 1 0 104.247817 -0.247000 -0.210500 
 87 1 1 0 105.511575 0.247000 0.210500 
 88 1 1 0 106.715575 -0.247000 -0.210500 
 89 1 1 0 107.979332 0.247000 0.210500 
 90 1 1 0 109.183332 -0.247000 -0.210500 
 91 1 1 0 110.447090 0.247000 0.210500 
 92 1 1 0 111.651090 -0.247000 -0.210500 
 93 1 1 0 112.914847 0.247000 0.210500 
 94 1 1 0 114.118847 -0.247000 -0.210500 
 95 1 1 0 115.382605 0.247000 0.210500 
 96 1 1 0 116.586605 -0.247000 -0.210500 
 97 1 1 0 117.850362 0.247000 0.210500 
 98 1 1 0 119.054362 -0.247000 -0.210500 
 99 1 1 0 120.318120 0.247000 0.210500 
 100 1 1 0 121.522120 -0.247000 -0.210500 

Bonds 

 1 1 1 2  
 2 2 2 3  
 3 1 3 4  
 4 2 4 5  
 5 1 5 6  
 6 2 6 7  
 7 1 7 8  
 8 2 8 9  
 9 1 9 10  
 10 2 10 11  
 11 1 11 12  
 12 2 12 13  
 13 1 13 14  
 14 2 14 15  
 15 1 15 16  
 16 2 16 17  
 17 1 17 18  
 18 2 18 19  
 19 1 19 20  
 20 2 20 21  
 21 1 21 22  
 22 2 22 23  
 23 1 23 24  
 24 2 24 25  
 25 1 25 26  
 26 2 26 27  
 27 1 27 28  
 28 2 28 29  
 29 1 29 30  
 30 2 30 31  
 31 1 31 32  
 32 2 32 33  
 33 1 33 34  
 34 2 34 35  
 35 1 35 36  
 36 2 36 37  
 37 1 37 38  
 38 2 38 39  
 39 1 39 40  
 40 2 40 41  
 41 1 41 42  
 42 2 42 43  
 43 1 43 44  
 44 2 44 45  
 45 1 45 46  
 46 2 46 47  
 47 1 47 48  
 48 2 48 49  
 49 1 49 50  
 50 2 50 51  
 51 1 51 52  
 52 2 52 53  
 53 1 53 54  
 54 2 54 55  
 55 1 55 56  
 56 2 56 57  
 57 1 57 58  
 58 2 58 59  
 59 1 59 60  
 60 2 60 61  
 61 1 61 62  
 62 2 62 63  
 63 1 63 64  
 64 2 64 65  
 65 1 65 66  
 66 2 66 67  
 67 1 67 68  
 68 2 68 69  
 69 1 69 70  
 70 2 70 71  
 71 1 71 72  
 72 2 72 73  
 73 1 73 74  
 74 2 74 75  
 75 1 75 76  
 76 2 76 77  
 77 1 77 78  
 78 2 78 79  
 79 1 79 80  
 80 2 80 81  
 81 1 81 82  
 82 2 82 83  
 83 1 83 84  
 84 2 84 85  
 85 1 85 86  
 86 2 86 87  
 87 1 87 88  
 88 2 88 89  
 89 1 89 90  
 90 2 90 91  
 91 1 91 92  
 92 2 92 93  
 93 1 93 94  
 94 2 94 95  
 95 1 95 96  
 96 2 96 97  
 97 1 97 98  
 98 2 98 99  
 99 1 99 100  
 100 2 100 1  

Angles 

 1 1 1 2 3 
 2 1 2 3 4 
 3 1 3 4 5 
 4 1 4 5 6 
 5 1 5 6 7 
 6 1 6 7 8 
 7 1 7 8 9 
 8 1 8 9 10 
 9 1 9 10 11 
 10 1 10 11 12 
 11 1 11 12 13 
 12 1 12 13 14 
 13 1 13 14 15 
 14 1 14 15 16 
 15 1 15 16 17 
 16 1 16 17 18 
 17 1 17 18 19 
 18 1 18 19 20 
 19 1 19 20 21 
 20 1 20 21 22 
 21 1 21 22 23 
 22 1 22 23 24 
 23 1 23 24 25 
 24 1 24 25 26 
 25 1 25 26 27 
 26 1 26 27 28 
 27 1 27 28 29 
 28 1 28 29 30 
 29 1 29 30 31 
 30 1 30 31 32 
 31 1 31 32 33 
 32 1 32 33 34 
 33 1 33 34 35 
 34 1 34 35 36 
 35 1 35 36 37 
 36 1 36 37 38 
 37 1 37 38 39 
 38 1 38 39 40 
 39 1 39 40 41 
 40 1 40 41 42 
 41 1 41 42 43 
 42 1 42 43 44 
 43 1 43 44 45 
 44 1 44 45 46 
 45 1 45 46 47 
 46 1 46 47 48 
 47 1 47 48 49 
 48 1 48 49 50 
 49 1 49 50 51 
 50 1 50 51 52 
 51 1 51 52 53 
 52 1 52 53 54 
 53 1 53 54 55 
 54 1 54 55 56 
 55 1 55 56 57 
 56 1 56 57 58 
 57 1 57 58 59 
 58 1 58 59 60 
 59 1 59 60 61 
 60 1 60 61 62 
 61 1 61 62 63 
 62 1 62 63 64 
 63 1 63 64 65 
 64 1 64 65 66 
 65 1 65 66 67 
 66 1 66 67 68 
 67 1 67 68 69 
 68 1 68 69 70 
 69 1 69 70 71 
 70 1 70 71 72 
 71 1 71 72 73 
 72 1 72 73 74 
 73 1 73 74 75 
 74 1 74 75 76 
 75 1 75 76 77 
 76 1 76 77 78 
 77 1 77 78 79 
 78 1 78 79 80 
 79 1 79 80 81 
 80 1 80 81 82 
 81 1 81 82 83 
 82 1 82 83 84 
 83 1 83 84 85 
 84 1 84 85 86 
 85 1 85 86 87 
 86 1 86 87 88 
 87 1 87 88 89 
 88 1 88 89 90 
 89 1 89 90 91 
 90 1 90 91 92 
 91 1 91 92 93 
 92 1 92 93 94 
 93 1 93 94 95 
 94 1 94 95 96 
 95 1 95 96 97 
 96 1 96 97 98 
 97 1 97 98 99 
 98 1 98 99 100 
 99 1 99 100 1 
 100 1 100 1 2 

Dihedrals 

 1 2 1 2 3 4 
 2 1 2 3 4 5 
 3 2 3 4 5 6 
 4 1 4 5 6 7 
 5 2 5 6 7 8 
 6 1 6 7 8 9 
 7 2 7 8 9 10 
 8 1 8 9 10 11 
 9 2 9 10 11 12 
 10 1 10 11 12 13 
 11 2 11 12 13 14 
 12 1 12 13 14 15 
 13 2 13 14 15 16 
 14 1 14 15 16 17 
 15 2 15 16 17 18 
 16 1 16 17 18 19 
 17 2 17 18 19 20 
 18 1 18 19 20 21 
 19 2 19 20 21 22 
 20 1 20 21 22 23 
 21 2 21 22 23 24 
 22 1 22 23 24 25 
 23 2 23 24 25 26 
 24 1 24 25 26 27 
 25 2 25 26 27 28 
 26 1 26 27 28 29 
 27 2 27 28 29 30 
 28 1 28 29 30 31 
 29 2 29 30 31 32 
 30 1 30 31 32 33 
 31 2 31 32 33 34 
 32 1 32 33 34 35 
 33 2 33 34 35 36 
 34 1 34 35 36 37 
 35 2 35 36 37 38 
 36 1 36 37 38 39 
 37 2 37 38 39 40 
 38 1 38 39 40 41 
 39 2 39 40 41 42 
 40 1 40 41 42 43 
 41 2 41 42 43 44 
 42 1 42 43 44 45 
 43 2 43 44 45 46 
 44 1 44 45 46 47 
 45 2 45 46 47 48 
 46 1 46 47 48 49 
 47 2 47 48 49 50 
 48 1 48 49 50 51 
 49 2 49 50 51 52 
 50 1 50 51 52 53 
 51 2 51 52 53 54 
 52 1 52 53 54 55 
 53 2 53 54 55 56 
 54 1 54 55 56 57 
 55 2 55 56 57 58 
 56 1 56 57 58 59 
 57 2 57 58 59 60 
 58 1 58 59 60 61 
 59 2 59 60 61 62 
 60 1 60 61 62 63 
 61 2 61 62 63 64 
 62 1 62 63 64 65 
 63 2 63 64 65 66 
 64 1 64 65 66 67 
 65 2 65 66 67 68 
 66 1 66 67 68 69 
 67 2 67 68 69 70 
 68 1 68 69 70 71 
 69 2 69 70 71 72 
 70 1 70 71 72 73 
 71 2 71 72 73 74 
 72 1 72 73 74 75 
 73 2 73 74 75 76 
 74 1 74 75 76 77 
 75 2 75 76 77 78 
 76 1 76 77 78 79 
 77 2 77 78 79 80 
 78 1 78 79 80 81 
 79 2 79 80 81 82 
 80 1 80 81 82 83 
 81 2 81 82 83 84 
 82 1 82 83 84 85 
 83 2 83 84 85 86 
 84 1 84 85 86 87 
 85 2 85 86 87 88 
 86 1 86 87 88 89 
 87 2 87 88 89 90 
 88 1 88 89 90 91 
 89 2 89 90 91 92 
 90 1 90 91 92 93 
 91 2 91 92 93 94 
 92 1 92 93 94 95 
 93 2 93 94 95 96 
 94 1 94 95 96 97 
 95 2 95 96 97 98 
 96 1 96 97 98 99 
 97 2 97 98 99 100 
 98 1 98 99 100 1 
 99 2 99 100 1 2 
 100 1 100 1 2 3 
