LAMMPS Description # full

4 atoms
3 bonds
2 angles
1 dihedrals
0 impropers

2 atom types
2 bond types
1 angle types
1 dihedral types
0 improper types

0 45.6769 xlo xhi
0 44.7399 ylo yhi
0 46.6050 zlo zhi

Masses

1 15.0350 # CH3 n-Butane C 83 #
2 14.0270 # CH2 n-Butane C 86 #

Pair Coeffs

1 0.1750 3.9050
2 0.1180 3.9050

Bond Coeffs

1 260.0000 1.5260
2 260.0000 1.5260

Angle Coeffs

1 63.0000 112.4000

Dihedral Coeffs

1 0.0000 0.0000 4.0000 0.0000

Atoms

1 1 1 0.0000 -3.4938 -0.5058 1.8979
2 1 2 0.0000 -2.2462 -0.2910 1.0458
3 1 2 0.0000 -2.4724 -0.6552 -0.4187
4 1 1 0.0000 -3.9231 -1.0309 -0.7071

Bonds

1 1 1 2
2 2 2 3
3 1 3 4

Angles

1 1 1 2 3
2 1 2 3 4

Dihedrals

1 1 1 2 3 4

