LAMMPS Description # full

4 atoms
3 bonds
2 angles
0 dihedrals
1 impropers

3 atom types
2 bond types
1 angle types
0 dihedral types
1 improper types

0 5.7779 xlo xhi
0 5.7779 ylo yhi
0 5.7779 zlo zhi

Masses

1 12.0110 # C C Ketone Carbonyl 127 #
2 15.9990 # O O Ketone Carbonyl 128 #
3 15.0350 # C CH3 Acetone 129 #

Pair Coeffs

1 0.1050 3.7500
2 0.2100 2.9600
3 0.1600 3.9100

Bond Coeffs

1 570.0000 1.2290
2 317.0000 1.5220

Angle Coeffs

1 80.0000 120.4000

Improper Coeffs

1 10.5000 -1 2

Atoms

1 1 3 0.0620 0.0725 5.2151 3.0831
2 1 1 0.3000 0.3499 4.7039 4.4896
3 1 3 0.0620 1.7707 4.3034 4.8603
4 1 2 -0.4240 -0.5567 4.6149 5.3146

Bonds

1 2 1 2
2 2 2 3
3 1 2 4

Angles

1 1 1 2 4
2 1 3 2 4

Impropers

1 1 1 3 2 4

