LAMMPS Description # full

4 atoms
3 bonds
2 angles
0 dihedrals
1 impropers

3 atom types
2 bond types
1 angle types
0 dihedral types
1 improper types

0 5.7779 xlo xhi
0 5.7779 ylo yhi
0 5.7779 zlo zhi

Masses

1 12.0110 # C Ketone Carbonyl C 127 #
2 15.9990 # O Ketone Carbonyl O 128 #
3 15.0350 # CH3 Acetone C 129 #

Pair Coeffs

1 0.1050 3.7500
2 0.2100 2.9600
3 0.1600 3.9100

Bond Coeffs

1 570.0000 1.2290
2 317.0000 1.5220

Angle Coeffs

1 80.0000 120.4000

Improper Coeffs

1 10.5000 -1 2

Atoms

1 1 3 0.0620 -0.3342 1.5274 0.6572
2 1 1 0.3000 0.8521 1.1362 1.5268
3 1 3 0.0620 1.1590 -0.3447 1.6981
4 1 2 -0.4240 1.5493 1.9838 2.0798

Bonds

1 2 1 2
2 2 2 3
3 1 2 4

Angles

1 1 1 2 4
2 1 3 2 4

Impropers

1 1 1 3 2 4

