LAMMPS Description # full

10 atoms
9 bonds
11 angles
10 dihedrals
2 impropers

7 atom types
6 bond types
4 angle types
3 dihedral types
2 improper types

0 7.7882 xlo xhi
0 7.7882 ylo yhi
0 7.7882 zlo zhi

Masses

1 15.0350 # C CH3 (beta) Ala 7 #
2 15.0350 # C CH3 Isobutane 84 #
3 13.0190 # C CH Isobutane 88 #
4 12.0110 # C C Neopentane 90 #
5 12.0110 # C C Ketone Carbonyl 127 #
6 15.9990 # O O Ketone Carbonyl 128 #
7 14.0270 # C CH2 Diethyl Ketone 130 #

Pair Coeffs

1 0.1600 3.9100
2 0.1600 3.9100
3 0.0800 3.8500
4 0.0500 3.8000
5 0.1050 3.7500
6 0.2100 2.9600
7 0.1180 3.9050

Bond Coeffs

1 570.0000 1.2290
2 317.0000 1.5220
3 317.0000 1.5220
4 260.0000 1.5260
5 260.0000 1.5260
6 260.0000 1.5260

Angle Coeffs

1 80.0000 120.4000
2 63.0000 112.4000
3 40.0000 109.5000
4 63.0000 112.4000

Dihedral Coeffs

1 0.0000 0.0000 0.0000 0.0000
2 0.0000 0.0000 0.0000 0.0000
3 0.0000 0.0000 4.0000 0.0000

Improper Coeffs

1 10.5000 -1 2
2 14.0000 -1 3

Atoms

1 1 2 0.0000 7.0428 6.0286 6.1639
2 1 3 0.0000 7.7132 5.2272 7.2761
3 1 2 0.0000 6.8958 4.9229 8.5282
4 1 7 0.0620 9.2072 5.3333 7.5684
5 1 5 0.3000 9.6833 4.2708 8.5487
6 1 6 -0.4240 8.9910 3.9625 9.5163
7 1 4 0.0620 11.0270 3.5948 8.3163
8 1 1 0.0000 10.8732 2.5061 7.2582
9 1 1 0.0000 11.5880 2.9845 9.5975
10 1 1 0.0000 11.9824 4.6681 7.8025

Bonds

1 6 1 2
2 6 2 3
3 5 2 4
4 2 4 5
5 1 5 6
6 3 5 7
7 4 7 8
8 4 7 9
9 4 7 10

Angles

1 4 1 2 4
2 4 3 2 4
3 2 2 4 5
4 1 4 5 6
5 1 6 5 7
6 3 5 7 8
7 3 5 7 9
8 3 5 7 10
9 3 8 7 9
10 3 8 7 10
11 3 9 7 10

Dihedrals

1 3 1 2 4 5
2 3 3 2 4 5
3 1 2 4 5 6
4 2 2 4 5 7
5 2 4 5 7 8
6 2 4 5 7 9
7 2 4 5 7 10
8 1 6 5 7 8
9 1 6 5 7 9
10 1 6 5 7 10

Impropers

1 2 1 3 2 4
2 1 4 6 5 7

