LAMMPS Description # full

10 atoms
9 bonds
13 angles
10 dihedrals
2 impropers

7 atom types
6 bond types
5 angle types
3 dihedral types
2 improper types

0 7.7882 xlo xhi
0 7.7882 ylo yhi
0 7.7882 zlo zhi

Masses

1 15.0350 # C CH3 (beta) Ala 7 #
2 15.0350 # C CH3 Isobutane 84 #
3 13.0190 # C CH Isobutane 88 #
4 12.0110 # C C Neopentane 90 #
5 12.0110 # C C Ketone Carbonyl 127 #
6 15.9990 # O O Ketone Carbonyl 128 #
7 14.0270 # C CH2 Diethyl Ketone 130 #

Pair Coeffs

1 0.1600 3.9100
2 0.1600 3.9100
3 0.0800 3.8500
4 0.0500 3.8000
5 0.1050 3.7500
6 0.2100 2.9600
7 0.1180 3.9050

Bond Coeffs

1 570.0000 1.2290
2 317.0000 1.5220
3 317.0000 1.5220
4 260.0000 1.5260
5 260.0000 1.5260
6 260.0000 1.5260

Angle Coeffs

1 80.0000 120.4000
2 0.0000 119.2000
3 63.0000 112.4000
4 40.0000 109.5000
5 63.0000 112.4000

Dihedral Coeffs

1 0.0000 0.0000 0.0000 0.0000
2 0.0000 0.0000 0.0000 0.0000
3 0.0000 0.0000 4.0000 0.0000

Improper Coeffs

1 10.5000 -1 2
2 14.0000 -1 3

Atoms

1 1 2 0.0000 7.0859 6.0149 6.1430
2 1 3 0.0000 7.7520 5.2185 7.2614
3 1 2 0.0000 6.8100 4.9640 8.4347
4 1 7 0.0620 9.2112 5.3145 7.6975
5 1 5 0.3000 9.5986 4.2127 8.6733
6 1 6 -0.4240 8.8201 3.8632 9.5577
7 1 4 0.0620 10.9618 3.5489 8.5408
8 1 1 0.0000 10.9141 2.5051 7.4287
9 1 1 0.0000 11.4212 2.8902 9.8384
10 1 1 0.0000 11.9432 4.6517 8.1541

Bonds

1 6 1 2
2 6 2 3
3 5 2 4
4 2 4 5
5 1 5 6
6 3 5 7
7 4 7 8
8 4 7 9
9 4 7 10

Angles

1 5 1 2 3
2 5 1 2 4
3 5 3 2 4
4 3 2 4 5
5 1 4 5 6
6 2 4 5 7
7 1 6 5 7
8 4 5 7 8
9 4 5 7 9
10 4 5 7 10
11 4 8 7 9
12 4 8 7 10
13 4 9 7 10

Dihedrals

1 3 1 2 4 5
2 3 3 2 4 5
3 1 2 4 5 6
4 2 2 4 5 7
5 2 4 5 7 8
6 2 4 5 7 9
7 2 4 5 7 10
8 1 6 5 7 8
9 1 6 5 7 9
10 1 6 5 7 10

Impropers

1 2 3 4 2 1
2 1 4 7 5 6

