LAMMPS Description # full

10 atoms
9 bonds
11 angles
10 dihedrals
2 impropers

7 atom types
6 bond types
4 angle types
3 dihedral types
2 improper types

0 7.7882 xlo xhi
0 7.7882 ylo yhi
0 7.7882 zlo zhi

Masses

1 15.0350 # CH3 (beta) Ala C 7 #
2 15.0350 # CH3 Isobutane C 84 #
3 13.0190 # CH Isobutane C 88 #
4 12.0110 # C Neopentane C 90 #
5 12.0110 # C Ketone Carbonyl C 127 #
6 15.9990 # O Ketone Carbonyl O 128 #
7 14.0270 # CH2 Diethyl Ketone C 130 #

Pair Coeffs

1 0.1600 3.9100
2 0.1600 3.9100
3 0.0800 3.8500
4 0.0500 3.8000
5 0.1050 3.7500
6 0.2100 2.9600
7 0.1180 3.9050

Bond Coeffs

1 570.0000 1.2290
2 317.0000 1.5220
3 317.0000 1.5220
4 260.0000 1.5260
5 260.0000 1.5260
6 260.0000 1.5260

Angle Coeffs

1 80.0000 120.4000
2 63.0000 112.4000
3 40.0000 109.5000
4 63.0000 112.4000

Dihedral Coeffs

1 0.0000 0.0000 0.0000 0.0000
2 0.0000 0.0000 0.0000 0.0000
3 0.0000 0.0000 4.0000 0.0000

Improper Coeffs

1 10.5000 -1 2
2 14.0000 -1 3

Atoms

1 1 2 0.0000 5.3182 0.7597 0.5489
2 1 3 0.0000 4.0674 1.0029 1.3885
3 1 2 0.0000 2.9741 1.9111 0.8329
4 1 7 0.0620 4.0855 0.9811 2.9143
5 1 5 0.3000 2.6858 1.0080 3.5114
6 1 6 -0.4240 1.8127 1.7185 3.0181
7 1 4 0.0620 2.3803 0.1443 4.7268
8 1 1 0.0000 2.1291 -1.2931 4.2802
9 1 1 0.0000 1.1296 0.6919 5.4083
10 1 1 0.0000 3.5483 0.1704 5.7086

Bonds

1 6 1 2
2 6 2 3
3 5 2 4
4 2 4 5
5 1 5 6
6 3 5 7
7 4 7 8
8 4 7 9
9 4 7 10

Angles

1 4 1 2 4
2 4 3 2 4
3 2 2 4 5
4 1 4 5 6
5 1 6 5 7
6 3 5 7 8
7 3 5 7 9
8 3 5 7 10
9 3 8 7 9
10 3 8 7 10
11 3 9 7 10

Dihedrals

1 3 1 2 4 5
2 3 3 2 4 5
3 1 2 4 5 6
4 2 2 4 5 7
5 2 4 5 7 8
6 2 4 5 7 9
7 2 4 5 7 10
8 1 6 5 7 8
9 1 6 5 7 9
10 1 6 5 7 10

Impropers

1 2 1 3 2 4
2 1 4 6 5 7

