ITEM: TIMESTEP
0
ITEM: NUMBER OF ATOMS
8
ITEM: BOX BOUNDS xy xz yz pp pp pp
0.0000000000000000e+00 5.4306999999999999e+00 0.0000000000000000e+00
0.0000000000000000e+00 5.4306999999999999e+00 0.0000000000000000e+00
0.0000000000000000e+00 5.4306999999999999e+00 0.0000000000000000e+00
ITEM: ATOMS id xu yu zu
1    0.000000000000000    0.000000000000000    0.000000000000000
2    0.000000000000000    2.715000000000000    2.715000000000000
3    1.358000000000000    1.358000000000000    1.358000000000000
4    1.358000000000000    4.073000000000000    4.073000000000000
5    2.715000000000000    0.000000000000000    2.715000000000000
6    2.715000000000000    2.715000000000000    0.000000000000000
7    4.073000000000000    1.358000000000000    4.073000000000000
8    4.073000000000000    4.073000000000000    1.358000000000000
