LAMMPS Description # full

56 atoms
49 bonds
42 angles
35 dihedrals
0 impropers

2 atom types
2 bond types
2 angle types
1 dihedral types
0 improper types

0 8.1531 xlo xhi
0 8.1531 ylo yhi
0 8.1531 zlo zhi

Masses

1 15.0350 # CH3 n-Butane C 83 #
2 14.0270 # CH2 n-Butane C 86 #

Pair Coeffs

1 0.1750 3.9050
2 0.1180 3.9050

Bond Coeffs

1 260.0000 1.5260
2 260.0000 1.5260

Angle Coeffs

1 63.0000 112.4000
2 63.0000 112.4000

Dihedral Coeffs

1 0.0000 0.0000 4.0000 0.0000

Atoms

1 1 1 0.0000 5.3512 0.8690 6.5485
2 1 2 0.0000 5.6241 2.1616 7.3122
3 1 2 0.0000 6.3375 3.2036 6.4554
4 1 2 0.0000 6.8270 4.3941 7.2751
5 1 2 0.0000 8.2065 4.8755 6.8348
6 1 2 0.0000 8.4625 4.6279 5.3509
7 1 2 0.0000 7.3913 3.7465 4.7151
8 1 1 0.0000 5.9980 4.3609 4.8151
9 2 1 0.0000 7.3807 5.7787 4.0873
10 2 2 0.0000 8.3031 5.0552 3.1105
11 2 2 0.0000 9.7288 5.5982 3.1461
12 2 2 0.0000 10.1942 5.9176 4.5638
13 2 2 0.0000 10.7931 7.3165 4.6780
14 2 2 0.0000 10.3621 8.2288 3.5332
15 2 2 0.0000 10.5327 9.7070 3.8718
16 2 1 0.0000 9.2202 10.3627 4.2912
17 3 1 0.0000 1.5264 1.1045 1.8102
18 3 2 0.0000 1.1583 2.1874 0.8000
19 3 2 0.0000 -0.2640 2.7051 0.9947
20 3 2 0.0000 -0.3026 4.2012 1.2927
21 3 2 0.0000 0.8567 4.9532 0.6453
22 3 2 0.0000 1.9073 4.0121 0.0629
23 3 2 0.0000 1.7636 3.8431 -1.4469
24 3 1 0.0000 0.6635 2.8533 -1.8192
25 4 1 0.0000 3.7553 7.6116 6.4216
26 4 2 0.0000 4.6839 6.4628 6.0388
27 4 2 0.0000 5.9503 6.4304 6.8896
28 4 2 0.0000 5.7222 6.9846 8.2930
29 4 2 0.0000 4.2438 7.2113 8.5956
30 4 2 0.0000 4.0007 8.5009 9.3743
31 4 2 0.0000 3.7680 9.6986 8.4578
32 4 1 0.0000 2.9069 9.3465 7.2481
33 5 1 0.0000 -2.8547 2.0611 1.9374
34 5 2 0.0000 -3.9961 1.7214 2.8915
35 5 2 0.0000 -3.9761 0.2584 3.3247
36 5 2 0.0000 -2.6087 -0.3888 3.1241
37 5 2 0.0000 -1.8418 0.2227 1.9551
38 5 2 0.0000 -0.9734 1.4024 2.3828
39 5 2 0.0000 -1.5576 2.1518 3.5769
40 5 1 0.0000 -2.3686 1.2414 4.4946
41 6 1 0.0000 7.8484 7.5995 2.9174
42 6 2 0.0000 7.8006 8.5434 4.1155
43 6 2 0.0000 8.1593 7.8424 5.4226
44 6 2 0.0000 9.2184 8.6008 6.2176
45 6 2 0.0000 9.4015 8.0400 7.6249
46 6 2 0.0000 8.0761 7.6481 8.2718
47 6 2 0.0000 6.9132 8.5051 7.7800
48 6 1 0.0000 7.2977 9.3795 6.5899
49 7 1 0.0000 6.3075 4.9744 2.2707
50 7 2 0.0000 4.9713 5.5334 2.7510
51 7 2 0.0000 3.8324 5.2317 1.7813
52 7 2 0.0000 3.7788 3.7584 1.3875
53 7 2 0.0000 2.5692 3.0415 1.9805
54 7 2 0.0000 2.1342 3.6413 3.3145
55 7 2 0.0000 3.1333 3.3583 4.4327
56 7 1 0.0000 3.5159 4.6186 5.2034

Bonds

1 1 1 2
2 2 3 4
3 2 5 6
4 1 7 8
5 2 2 3
6 2 4 5
7 2 6 7
8 1 9 10
9 2 11 12
10 2 13 14
11 1 15 16
12 2 10 11
13 2 12 13
14 2 14 15
15 1 17 18
16 2 19 20
17 2 21 22
18 1 23 24
19 2 18 19
20 2 20 21
21 2 22 23
22 1 25 26
23 2 27 28
24 2 29 30
25 1 31 32
26 2 26 27
27 2 28 29
28 2 30 31
29 1 33 34
30 2 35 36
31 2 37 38
32 1 39 40
33 2 34 35
34 2 36 37
35 2 38 39
36 1 41 42
37 2 43 44
38 2 45 46
39 1 47 48
40 2 42 43
41 2 44 45
42 2 46 47
43 1 49 50
44 2 51 52
45 2 53 54
46 1 55 56
47 2 50 51
48 2 52 53
49 2 54 55

Angles

1 1 1 2 3
2 2 4 3 2
3 2 3 4 5
4 2 6 5 4
5 2 5 6 7
6 1 8 7 6
7 1 9 10 11
8 2 12 11 10
9 2 11 12 13
10 2 14 13 12
11 2 13 14 15
12 1 16 15 14
13 1 17 18 19
14 2 20 19 18
15 2 19 20 21
16 2 22 21 20
17 2 21 22 23
18 1 24 23 22
19 1 25 26 27
20 2 28 27 26
21 2 27 28 29
22 2 30 29 28
23 2 29 30 31
24 1 32 31 30
25 1 33 34 35
26 2 36 35 34
27 2 35 36 37
28 2 38 37 36
29 2 37 38 39
30 1 40 39 38
31 1 41 42 43
32 2 44 43 42
33 2 43 44 45
34 2 46 45 44
35 2 45 46 47
36 1 48 47 46
37 1 49 50 51
38 2 52 51 50
39 2 51 52 53
40 2 54 53 52
41 2 53 54 55
42 1 56 55 54

Dihedrals

1 1 1 2 3 4
2 1 2 3 4 5
3 1 3 4 5 6
4 1 4 5 6 7
5 1 5 6 7 8
6 1 9 10 11 12
7 1 10 11 12 13
8 1 11 12 13 14
9 1 12 13 14 15
10 1 13 14 15 16
11 1 17 18 19 20
12 1 18 19 20 21
13 1 19 20 21 22
14 1 20 21 22 23
15 1 21 22 23 24
16 1 25 26 27 28
17 1 26 27 28 29
18 1 27 28 29 30
19 1 28 29 30 31
20 1 29 30 31 32
21 1 33 34 35 36
22 1 34 35 36 37
23 1 35 36 37 38
24 1 36 37 38 39
25 1 37 38 39 40
26 1 41 42 43 44
27 1 42 43 44 45
28 1 43 44 45 46
29 1 44 45 46 47
30 1 45 46 47 48
31 1 49 50 51 52
32 1 50 51 52 53
33 1 51 52 53 54
34 1 52 53 54 55
35 1 53 54 55 56

