LAMMPS (19 Nov 2024)
OMP_NUM_THREADS environment is not set. Defaulting to 1 thread. (src/comm.cpp:99)
  using 1 OpenMP thread(s) per MPI task
Reading data file ...
  orthogonal box = (0 0 0) to (30.5885 30.5885 30.5885)
  1 by 1 by 1 MPI processor grid
  reading atoms ...
  600 atoms
  scanning bonds ...
  1 = max bonds/atom
  scanning angles ...
  1 = max angles/atom
  scanning dihedrals ...
  1 = max dihedrals/atom
  orthogonal box = (0 0 0) to (30.5885 30.5885 30.5885)
  1 by 1 by 1 MPI processor grid
  reading bonds ...
  500 bonds
  reading angles ...
  400 angles
  reading dihedrals ...
  300 dihedrals
Finding 1-2 1-3 1-4 neighbors ...
  special bond factors lj:    0        0        0.5     
  special bond factors coul:  0        0        0.5     
     2 = max # of 1-2 neighbors
     2 = max # of 1-3 neighbors
     3 = max # of 1-4 neighbors
     5 = max # of special neighbors
  special bonds CPU = 0.000 seconds
  read_data CPU = 0.002 seconds
Generated 1 of 1 mixed pair_coeff terms from geometric mixing rule
Neighbor list info ...
  update: every = 1 steps, delay = 0 steps, check = yes
  max neighbors/atom: 2000, page size: 100000
  master list distance cutoff = 13
  ghost atom cutoff = 13
  binsize = 6.5, bins = 5 5 5
  1 neighbor lists, perpetual/occasional/extra = 1 0 0
  (1) pair lj/cut, perpetual
      attributes: half, newton on
      pair build: half/bin/newton
      stencil: half/bin/3d
      bin: standard
Setting up fire style minimization ...
  Unit style    : real
  Current step  : 0
  Parameters for fire:
    dmax  delaystep dtgrow dtshrink alpha0 alphashrink tmax tmin   integrator   halfstepback   abcfire  
     0.1     20      1.1     0.5     0.25     0.99      10  0.02 eulerimplicit      yes          no     
Per MPI rank memory allocation (min/avg/max) = 7.155 | 7.155 | 7.155 Mbytes
   Step          Temp          E_pair         E_mol          TotEng         Press     
         0   0              75436.582      599.01745      76035.599      747539.52    
      1000   0.031056285   -391.18041      239.80412     -151.32084     -1032.6779    
      2000   0.062463337   -411.93117      240.1293      -171.69033     -1071.887     
      3000   0.035220555   -426.87155      240.09404     -186.71462     -1032.7832    
      4000   0.010326571   -440.64711      240.28026     -200.34842     -991.0406     
      5000   0.0042272647  -454.04198      240.24358     -213.79085     -985.26521    
      6000   0.14707016    -466.94887      240.06408     -226.6222      -955.9089     
      7000   0.028656701   -476.83073      239.85272     -236.92684     -909.00989    
      8000   0.0050570677  -484.64631      239.35295     -245.28433     -855.65017    
      9000   0.0019130107  -492.00344      238.91001     -253.09001     -807.56848    
     10000   0.021602385   -498.05627      238.54761     -259.47009     -755.7072     
     11000   0.043057525   -503.93005      238.44799     -265.40519     -717.41684    
     11669   0.0050243362  -507.51581      238.55811     -268.94873     -697.73373    
Loop time of 3.5679 on 1 procs for 11669 steps with 600 atoms

99.8% CPU use with 1 MPI tasks x 1 OpenMP threads

Minimization stats:
  Stopping criterion = energy tolerance
  Energy initial, next-to-last, final = 
      76035.5990570893  -268.957470775948  -268.957698284861
  Force two-norm initial, final = 64476.16 1.1553981
  Force max component initial, final = 11788.978 0.14026888
  Final line search alpha, max atom move = 0 0
  Iterations, force evaluations = 11669 12310

MPI task timing breakdown:
Section |  min time  |  avg time  |  max time  |%varavg| %total
---------------------------------------------------------------
Pair    | 3.1155     | 3.1155     | 3.1155     |   0.0 | 87.32
Bond    | 0.31499    | 0.31499    | 0.31499    |   0.0 |  8.83
Neigh   | 0.01268    | 0.01268    | 0.01268    |   0.0 |  0.36
Comm    | 0.06044    | 0.06044    | 0.06044    |   0.0 |  1.69
Output  | 0.00046187 | 0.00046187 | 0.00046187 |   0.0 |  0.01
Modify  | 0          | 0          | 0          |   0.0 |  0.00
Other   |            | 0.06388    |            |       |  1.79

Nlocal:            600 ave         600 max         600 min
Histogram: 1 0 0 0 0 0 0 0 0 0
Nghost:           3181 ave        3181 max        3181 min
Histogram: 1 0 0 0 0 0 0 0 0 0
Neighs:          59252 ave       59252 max       59252 min
Histogram: 1 0 0 0 0 0 0 0 0 0

Total # of neighbors = 59252
Ave neighs/atom = 98.753333
Ave special neighs/atom = 4
Neighbor list builds = 14
Dangerous builds = 0
Generated 1 of 1 mixed pair_coeff terms from geometric mixing rule
Setting up Verlet run ...
  Unit style    : real
  Current step  : 11669
  Time step     : 1
Per MPI rank memory allocation (min/avg/max) = 7.19 | 7.19 | 7.19 Mbytes
   Step          Temp          E_pair         E_mol          TotEng         Press     
     11669   10            -507.51581      238.55811     -251.10265     -669.23003    
     12000   9.4466494     -506.45813      250.59367     -238.99742     -764.6473     
     12669   10.567779     -510.99335      245.32247     -246.80205     -406.0259     
Loop time of 0.152126 on 1 procs for 1000 steps with 600 atoms

Performance: 567.951 ns/day, 0.042 hours/ns, 6573.504 timesteps/s, 3.944 Matom-step/s
99.9% CPU use with 1 MPI tasks x 1 OpenMP threads

MPI task timing breakdown:
Section |  min time  |  avg time  |  max time  |%varavg| %total
---------------------------------------------------------------
Pair    | 0.12224    | 0.12224    | 0.12224    |   0.0 | 80.35
Bond    | 0.019342   | 0.019342   | 0.019342   |   0.0 | 12.71
Neigh   | 0.0018131  | 0.0018131  | 0.0018131  |   0.0 |  1.19
Comm    | 0.0047846  | 0.0047846  | 0.0047846  |   0.0 |  3.15
Output  | 3.05e-05   | 3.05e-05   | 3.05e-05   |   0.0 |  0.02
Modify  | 0.0027     | 0.0027     | 0.0027     |   0.0 |  1.77
Other   |            | 0.001216   |            |       |  0.80

Nlocal:            600 ave         600 max         600 min
Histogram: 1 0 0 0 0 0 0 0 0 0
Nghost:           3164 ave        3164 max        3164 min
Histogram: 1 0 0 0 0 0 0 0 0 0
Neighs:          59787 ave       59787 max       59787 min
Histogram: 1 0 0 0 0 0 0 0 0 0

Total # of neighbors = 59787
Ave neighs/atom = 99.645
Ave special neighs/atom = 4
Neighbor list builds = 2
Dangerous builds = 0
Generated 1 of 1 mixed pair_coeff terms from geometric mixing rule
Setting up Verlet run ...
  Unit style    : real
  Current step  : 12669
  Time step     : 1
Per MPI rank memory allocation (min/avg/max) = 7.19 | 7.19 | 7.19 Mbytes
   Step          Temp          E_pair         E_mol          TotEng         Press     
     12669   10.567779     -510.99335      245.32247     -246.80205     -406.0259     
     13000   11.541019     -517.74516      248.558       -248.58061     -482.56066    
     14000   17.33302      -527.61489      250.08604     -246.58066     -505.02078    
     15000   23.009602     -534.28426      250.00518     -243.19531     -461.44038    
     16000   28.755398     -529.61879      251.27137     -227.00451     -424.47898    
     17000   33.189584     -532.08986      250.33486     -222.49483     -375.24621    
     18000   42.583747     -532.73571      237.18598     -219.51622     -465.79529    
     19000   46.86624      -533.06149      231.40729     -217.97429     -406.60156    
     20000   54.111746     -531.89037      240.28074     -194.99283     -255.68972    
     21000   59.834425     -537.5546       239.54486     -191.17506     -528.59491    
     22000   65.219184     -531.79234      244.87778     -170.46536     -555.9306     
     23000   69.070031     -528.87485      243.40505     -162.14491     -361.31146    
     24000   77.045879     -537.04236      246.04398     -153.43256     -370.35321    
     25000   81.290794     -514.44119      228.93013     -140.36592     -309.77769    
     26000   86.047819     -513.4948       247.28502     -112.57095     -211.06636    
     27000   90.558994     -514.82196      261.3296      -91.798806     -388.35304    
     28000   95.227981     -502.2811       264.33301     -67.918037     -196.11114    
     29000   107.60463     -508.86195      253.38194     -63.351389      122.12689    
     30000   112.53425     -505.9243       250.2493      -54.744509     -526.04444    
     31000   118.13045     -494.24998      261.16598     -22.161465      159.8964     
     32000   121.86634     -500.88545      257.29043     -26.002037     -108.16671    
     33000   130.13496     -507.09481      253.3618      -21.376366     -12.863204    
     34000   136.70816     -510.46563      269.62211      3.2496087     -589.73449    
     35000   144.66441     -501.11603      272.47422      29.657253     -723.86067    
     36000   141.87816     -479.92295      270.54547      43.946705      277.38643    
     37000   152.20794     -487.05999      266.24168      50.949754     -243.37574    
     38000   155.23173     -483.59169      268.07762      61.652993     -398.78669    
     39000   157.50065     -502.41043      276.35312      55.160931      76.086874    
     40000   160.3668      -502.51403      296.96084      80.782561     -447.39532    
     41000   167.94089     -477.69039      277.21916      99.388104      132.29542    
     42000   180.16965     -488.34966      297.08586      130.43004      66.879137    
     43000   192.11391     -468.97325      280.70445      154.75159     -368.74474    
     44000   196.98936     -474.27818      287.04118      164.48853     -563.03258    
     45000   195.15047     -495.25904      311.66174      164.84488     -216.06147    
     46000   208.72713     -481.92299      301.66119      192.42157     -112.39356    
     47000   204.00498     -465.66408      312.26964      210.85751     -158.22451    
     48000   218.26906     -475.98129      315.37899      229.11824      30.427562    
     49000   229.3821      -494.06404      301.06211      216.56102     -309.94858    
     50000   230.54897     -482.91235      307.2762       236.01025     -519.45695    
     51000   228.54673     -474.62373      321.13036      254.57802     -57.490185    
     52000   244.24963     -481.93239      324.12782      278.30443     -1102.4967    
     53000   254.33908     -503.57585      319.60812      270.15604     -291.89246    
     54000   253.56473     -493.03402      326.91645      286.62358     -129.06106    
     55000   250.07316     -456.2276       322.89337      313.17269      37.543877    
     56000   254.32193     -461.95586      333.66343      325.8007      -284.12983    
     57000   263.11736     -473.44049      340.51714      336.87406     -69.560435    
     58000   272.2207      -460.37184      323.27743      348.95707     -520.25376    
     59000   276.49316     -463.69898      334.14708      364.12808     -473.63195    
     60000   280.57161     -482.30495      344.9042       363.56133      265.20969    
     61000   285.07918     -480.69232      344.88138      373.19942      356.13119    
     62000   301.29337     -493.56908      345.63577      390.02758     -382.91631    
     62669   304.51664     -490.84301      343.14669      396.01971      34.402661    
Loop time of 9.34652 on 1 procs for 50000 steps with 600 atoms

Performance: 462.204 ns/day, 0.052 hours/ns, 5349.584 timesteps/s, 3.210 Matom-step/s
99.9% CPU use with 1 MPI tasks x 1 OpenMP threads

MPI task timing breakdown:
Section |  min time  |  avg time  |  max time  |%varavg| %total
---------------------------------------------------------------
Pair    | 7.4254     | 7.4254     | 7.4254     |   0.0 | 79.45
Bond    | 0.99673    | 0.99673    | 0.99673    |   0.0 | 10.66
Neigh   | 0.46517    | 0.46517    | 0.46517    |   0.0 |  4.98
Comm    | 0.25761    | 0.25761    | 0.25761    |   0.0 |  2.76
Output  | 0.0017644  | 0.0017644  | 0.0017644  |   0.0 |  0.02
Modify  | 0.13704    | 0.13704    | 0.13704    |   0.0 |  1.47
Other   |            | 0.06284    |            |       |  0.67

Nlocal:            600 ave         600 max         600 min
Histogram: 1 0 0 0 0 0 0 0 0 0
Nghost:           3212 ave        3212 max        3212 min
Histogram: 1 0 0 0 0 0 0 0 0 0
Neighs:          57776 ave       57776 max       57776 min
Histogram: 1 0 0 0 0 0 0 0 0 0

Total # of neighbors = 57776
Ave neighs/atom = 96.293333
Ave special neighs/atom = 4
Neighbor list builds = 493
Dangerous builds = 0
Generated 1 of 1 mixed pair_coeff terms from geometric mixing rule
Setting up Verlet run ...
  Unit style    : real
  Current step  : 62669
  Time step     : 1
Per MPI rank memory allocation (min/avg/max) = 7.193 | 7.193 | 7.193 Mbytes
   Step          Temp          E_pair         E_mol          TotEng         Press     
     62669   304.51664     -490.84301      343.14669      396.01971      34.402661    
     63000   304.14515     -504.02959      355.13632      394.15948     -42.257054    
     64000   291.45151     -472.34931      352.43266      400.47155      334.62985    
     65000   301.99646     -485.66592      351.23273      404.78307      115.42898    
     66000   309.83555     -497.39808      343.33547      399.15038      55.499394    
     67000   298.84826     -496.53091      361.83354      398.89775     -593.62988    
     68000   300.53861     -511.15451      366.6877       392.14645     -455.39813    
     69000   296.62999     -513.00294      371.80138      388.43284     -369.82053    
     70000   300.1432      -499.17579      344.14331      380.87477     -365.65106    
     71000   303.28582     -504.5597       333.41223      370.37095      36.437251    
     72000   302.79275     -501.41045      342.52181      381.7494      -297.53535    
     73000   298.10103     -504.13294      341.94219      370.07021     -264.4947     
     74000   302.4948      -508.22848      322.89715      354.77472     -45.045924    
     75000   298.0512      -505.02978      356.3326       383.4748      -427.88699    
     76000   293.11147     -488.51672      352.68781      387.52314     -118.50175    
     77000   307.68189     -520.01046      333.18423      362.54139     -298.79625    
     78000   300.08006     -508.38668      364.00469      391.41252     -799.6449     
     79000   296.49354     -486.34919      357.04494      400.08651      112.38993    
     80000   292.87805     -490.05025      363.48762      396.37266     -93.726671    
     81000   295.93354     -505.7238       358.34278      381.00986      205.98438    
     82000   297.02182     -501.52763      348.71353      377.51992     -607.17819    
     83000   301.15995     -503.73361      338.74117      372.73022     -619.28059    
     84000   298.79557     -510.23218      348.48091      371.74978     -246.73368    
     85000   306.54156     -497.60583      337.57486      387.30059      723.23603    
     86000   298.13319     -513.72256      363.19225      381.78806      283.3484     
     87000   304.00321     -499.36472      344.69061      388.1252       19.340489    
     88000   313.52665     -500.60908      314.19073      373.38513     -987.67046    
     89000   293.84288     -502.27174      358.68376      381.07002     -331.38819    
     90000   303.52307     -499.30791      333.90864      376.54275      4.3022548    
     91000   289.0496      -495.50001      357.28871      377.88827     -484.1748     
     92000   294.79326     -503.26505      347.23658      370.32644      75.585325    
     93000   293.22156     -501.88187      342.87185      364.53861     -480.32123    
     94000   304.02699     -511.65132      350.30103      381.49149      179.12939    
     95000   298.05767     -497.66874      352.70956      387.22435      311.25415    
     96000   290.9939      -488.46985      366.44608      397.54736     -99.62609     
     97000   307.031       -508.31182      356.59842      396.49206     -329.13582    
     98000   294.26601     -488.31143      372.99765      410.09972      662.60395    
     99000   295.30244     -499.6238       368.47659      396.11684     -560.66539    
    100000   290.58388     -487.80641      370.97891      402.01152     -166.91865    
    101000   299.1619      -492.8245       365.75622      407.08686     -408.676      
    102000   302.23562     -484.9121       363.01249      417.74368     -298.88406    
    103000   293.83822     -481.49355      373.7409       416.89701     -207.63491    
    104000   301.76758     -471.74409      360.17102      427.23453      376.83716    
    105000   298.59475     -487.48139      373.65741      419.31852     -169.00136    
    106000   296.80318     -467.93115      364.41922      426.43169      108.38565    
    107000   308.12368     -484.14069      335.69754      401.71328     -14.421735    
    108000   298.39481     -482.35816      345.95613      396.38347      148.9965     
    109000   294.3296      -498.01937      365.91224      393.41991     -138.19003    
    110000   297.2946      -483.75332      364.49011      411.55785      878.92895    
    111000   300.07594     -488.98283      363.17662      409.98093     -160.87365    
    112000   298.76651     -505.90915      367.49092      395.03093     -361.72183    
    112669   292.77142     -491.58298      363.06398      394.22591     -248.11279    
Loop time of 9.14683 on 1 procs for 50000 steps with 600 atoms

Performance: 472.295 ns/day, 0.051 hours/ns, 5466.375 timesteps/s, 3.280 Matom-step/s
99.9% CPU use with 1 MPI tasks x 1 OpenMP threads

MPI task timing breakdown:
Section |  min time  |  avg time  |  max time  |%varavg| %total
---------------------------------------------------------------
Pair    | 7.0096     | 7.0096     | 7.0096     |   0.0 | 76.63
Bond    | 1.0079     | 1.0079     | 1.0079     |   0.0 | 11.02
Neigh   | 0.66841    | 0.66841    | 0.66841    |   0.0 |  7.31
Comm    | 0.25854    | 0.25854    | 0.25854    |   0.0 |  2.83
Output  | 0.0015462  | 0.0015462  | 0.0015462  |   0.0 |  0.02
Modify  | 0.13793    | 0.13793    | 0.13793    |   0.0 |  1.51
Other   |            | 0.06291    |            |       |  0.69

Nlocal:            600 ave         600 max         600 min
Histogram: 1 0 0 0 0 0 0 0 0 0
Nghost:           3227 ave        3227 max        3227 min
Histogram: 1 0 0 0 0 0 0 0 0 0
Neighs:          57559 ave       57559 max       57559 min
Histogram: 1 0 0 0 0 0 0 0 0 0

Total # of neighbors = 57559
Ave neighs/atom = 95.931667
Ave special neighs/atom = 4
Neighbor list builds = 706
Dangerous builds = 0
defm_id=000
Generated 1 of 1 mixed pair_coeff terms from geometric mixing rule
Setting up Verlet run ...
  Unit style    : real
  Current step  : 112669
  Time step     : 1
Per MPI rank memory allocation (min/avg/max) = 7.193 | 7.193 | 7.193 Mbytes
   Step          Temp          E_pair         E_mol          TotEng         Press          Volume    
    112669   292.77142     -491.58298      363.06398      394.22591     -248.11279      28620.324    
    113000   293.73996     -485.10658      359.93261      399.30027     -512.33888      29259.718    
    114000   298.41945     -510.38478      374.75178      397.19648     -541.75378      28447.088    
    115000   299.20642     -525.26034      352.43581      361.4101      -499.88181      28267.958    
    116000   311.01499     -507.09243      343.02654      391.253        1050.6754      29372.908    
    117000   301.6982      -528.20196      347.03659      357.51834     -425.41133      27775.412    
    118000   296.12343     -501.29807      359.86625      387.29812      1604.9503      29259.718    
    119000   299.73002     -504.38384      343.09944      373.88512     -713.56918      28447.088    
    120000   304.30979     -513.32009      344.28668      374.31331     -536.12531      28267.958    
    120169   302.08357     -498.51934      341.92522      382.77768      201.29821      28472.428    
Loop time of 1.48388 on 1 procs for 7500 steps with 600 atoms

Performance: 436.693 ns/day, 0.055 hours/ns, 5054.316 timesteps/s, 3.033 Matom-step/s
99.8% CPU use with 1 MPI tasks x 1 OpenMP threads

MPI task timing breakdown:
Section |  min time  |  avg time  |  max time  |%varavg| %total
---------------------------------------------------------------
Pair    | 1.1233     | 1.1233     | 1.1233     |   0.0 | 75.70
Bond    | 0.17863    | 0.17863    | 0.17863    |   0.0 | 12.04
Neigh   | 0.1041     | 0.1041     | 0.1041     |   0.0 |  7.02
Comm    | 0.039798   | 0.039798   | 0.039798   |   0.0 |  2.68
Output  | 0.00022337 | 0.00022337 | 0.00022337 |   0.0 |  0.02
Modify  | 0.028667   | 0.028667   | 0.028667   |   0.0 |  1.93
Other   |            | 0.009175   |            |       |  0.62

Nlocal:            600 ave         600 max         600 min
Histogram: 1 0 0 0 0 0 0 0 0 0
Nghost:           3197 ave        3197 max        3197 min
Histogram: 1 0 0 0 0 0 0 0 0 0
Neighs:          57084 ave       57084 max       57084 min
Histogram: 1 0 0 0 0 0 0 0 0 0

Total # of neighbors = 57084
Ave neighs/atom = 95.14
Ave special neighs/atom = 4
Neighbor list builds = 109
Dangerous builds = 0
fact=0.99233649202212
Generated 1 of 1 mixed pair_coeff terms from geometric mixing rule
Setting up Verlet run ...
  Unit style    : real
  Current step  : 120169
  Time step     : 1
Per MPI rank memory allocation (min/avg/max) = 7.193 | 7.193 | 7.193 Mbytes
   Step          Temp          E_pair         E_mol          TotEng         Press          Volume    
    120169   302.17852     -498.51934      341.92522      382.94721      201.5704       28472.428    
    121000   291.16855     -520.36888      387.34376      386.85786     -2835.7915      28039.466    
    121419   300.36411     -529.11232      355.65004      362.83941     -252.84873      27832.635    
Loop time of 0.250206 on 1 procs for 1250 steps with 600 atoms

Performance: 431.644 ns/day, 0.056 hours/ns, 4995.884 timesteps/s, 2.998 Matom-step/s
302.4% CPU use with 1 MPI tasks x 1 OpenMP threads

MPI task timing breakdown:
Section |  min time  |  avg time  |  max time  |%varavg| %total
---------------------------------------------------------------
Pair    | 0.1922     | 0.1922     | 0.1922     |   0.0 | 76.82
Bond    | 0.026845   | 0.026845   | 0.026845   |   0.0 | 10.73
Neigh   | 0.018794   | 0.018794   | 0.018794   |   0.0 |  7.51
Comm    | 0.006885   | 0.006885   | 0.006885   |   0.0 |  2.75
Output  | 5.0459e-05 | 5.0459e-05 | 5.0459e-05 |   0.0 |  0.02
Modify  | 0.0036999  | 0.0036999  | 0.0036999  |   0.0 |  1.48
Other   |            | 0.001733   |            |       |  0.69

Nlocal:            600 ave         600 max         600 min
Histogram: 1 0 0 0 0 0 0 0 0 0
Nghost:           3174 ave        3174 max        3174 min
Histogram: 1 0 0 0 0 0 0 0 0 0
Neighs:          58057 ave       58057 max       58057 min
Histogram: 1 0 0 0 0 0 0 0 0 0

Total # of neighbors = 58057
Ave neighs/atom = 96.761667
Ave special neighs/atom = 4
Neighbor list builds = 18
Dangerous builds = 0
Generated 1 of 1 mixed pair_coeff terms from geometric mixing rule
Setting up Verlet run ...
  Unit style    : real
  Current step  : 121419
  Time step     : 1
Per MPI rank memory allocation (min/avg/max) = 7.193 | 7.193 | 7.193 Mbytes
   Step          Temp          E_pair         E_mol          TotEng         Press     
    121419   300.36411     -529.11232      355.65004      362.83941     -252.84873    
    122000   296.813       -516.16203      347.32086      361.11999     -224.6399     
    122669   288.7208      -516.9678       366.11915      364.66384      279.04767    
Loop time of 0.22927 on 1 procs for 1250 steps with 600 atoms

Performance: 471.060 ns/day, 0.051 hours/ns, 5452.080 timesteps/s, 3.271 Matom-step/s
99.8% CPU use with 1 MPI tasks x 1 OpenMP threads

MPI task timing breakdown:
Section |  min time  |  avg time  |  max time  |%varavg| %total
---------------------------------------------------------------
Pair    | 0.17707    | 0.17707    | 0.17707    |   0.0 | 77.23
Bond    | 0.025209   | 0.025209   | 0.025209   |   0.0 | 11.00
Neigh   | 0.015433   | 0.015433   | 0.015433   |   0.0 |  6.73
Comm    | 0.0064542  | 0.0064542  | 0.0064542  |   0.0 |  2.82
Output  | 4.3042e-05 | 4.3042e-05 | 4.3042e-05 |   0.0 |  0.02
Modify  | 0.0034567  | 0.0034567  | 0.0034567  |   0.0 |  1.51
Other   |            | 0.001608   |            |       |  0.70

Nlocal:            600 ave         600 max         600 min
Histogram: 1 0 0 0 0 0 0 0 0 0
Nghost:           3168 ave        3168 max        3168 min
Histogram: 1 0 0 0 0 0 0 0 0 0
Neighs:          58518 ave       58518 max       58518 min
Histogram: 1 0 0 0 0 0 0 0 0 0

Total # of neighbors = 58518
Ave neighs/atom = 97.53
Ave special neighs/atom = 4
Neighbor list builds = 16
Dangerous builds = 0
defm_id=001
Generated 1 of 1 mixed pair_coeff terms from geometric mixing rule
Setting up Verlet run ...
  Unit style    : real
  Current step  : 122669
  Time step     : 1
Per MPI rank memory allocation (min/avg/max) = 7.193 | 7.193 | 7.193 Mbytes
   Step          Temp          E_pair         E_mol          TotEng         Press          Volume    
    122669   288.7208      -516.9678       366.11915      364.66384      279.04767      27832.635    
    123000   298.24713     -508.13157      354.11333      378.50356     -256.79908      28454.432    
    124000   305.82197     -513.71893      351.93093      384.25873     -28.501624      27664.166    
    125000   306.0042      -535.47777      344.61624      355.51058      1291.6048      27489.967    
    126000   290.30384     -502.213        373.78187      389.9079       660.90576      28564.506    
    127000   290.57623     -533.53581      376.52127      361.81085     -826.10271      27010.976    
    128000   302.36071     -502.73678      359.08385      396.21369      89.148557      28454.432    
    129000   309.09845     -514.15708      355.66547      393.40529     -1156.3084      27664.166    
    130000   298.01363     -530.96868      359.36323      360.49944      70.073089      27489.967    
    130169   293.07362     -525.98745      372.72831      370.02533     -995.60263      27688.809    
Loop time of 1.47829 on 1 procs for 7500 steps with 600 atoms

Performance: 438.345 ns/day, 0.055 hours/ns, 5073.440 timesteps/s, 3.044 Matom-step/s
99.8% CPU use with 1 MPI tasks x 1 OpenMP threads

MPI task timing breakdown:
Section |  min time  |  avg time  |  max time  |%varavg| %total
---------------------------------------------------------------
Pair    | 1.1166     | 1.1166     | 1.1166     |   0.0 | 75.53
Bond    | 0.17858    | 0.17858    | 0.17858    |   0.0 | 12.08
Neigh   | 0.10489    | 0.10489    | 0.10489    |   0.0 |  7.10
Comm    | 0.040261   | 0.040261   | 0.040261   |   0.0 |  2.72
Output  | 0.00019746 | 0.00019746 | 0.00019746 |   0.0 |  0.01
Modify  | 0.028584   | 0.028584   | 0.028584   |   0.0 |  1.93
Other   |            | 0.009156   |            |       |  0.62

Nlocal:            600 ave         600 max         600 min
Histogram: 1 0 0 0 0 0 0 0 0 0
Nghost:           3394 ave        3394 max        3394 min
Histogram: 1 0 0 0 0 0 0 0 0 0
Neighs:          59211 ave       59211 max       59211 min
Histogram: 1 0 0 0 0 0 0 0 0 0

Total # of neighbors = 59211
Ave neighs/atom = 98.685
Ave special neighs/atom = 4
Neighbor list builds = 107
Dangerous builds = 0
fact=0.992336421609556
Generated 1 of 1 mixed pair_coeff terms from geometric mixing rule
Setting up Verlet run ...
  Unit style    : real
  Current step  : 130169
  Time step     : 1
Per MPI rank memory allocation (min/avg/max) = 7.193 | 7.193 | 7.193 Mbytes
   Step          Temp          E_pair         E_mol          TotEng         Press          Volume    
    130169   293.2236      -525.98745      372.72831      370.29314     -995.16051      27688.809    
    131000   304.37953     -548.1919       371.05846      366.33781     -1635.6018      27267.759    
    131419   309.57958     -554.3304       357.24097      355.66652      52.361105      27066.618    
Loop time of 0.255558 on 1 procs for 1250 steps with 600 atoms

Performance: 422.605 ns/day, 0.057 hours/ns, 4891.257 timesteps/s, 2.935 Matom-step/s
297.5% CPU use with 1 MPI tasks x 1 OpenMP threads

MPI task timing breakdown:
Section |  min time  |  avg time  |  max time  |%varavg| %total
---------------------------------------------------------------
Pair    | 0.19909    | 0.19909    | 0.19909    |   0.0 | 77.90
Bond    | 0.026813   | 0.026813   | 0.026813   |   0.0 | 10.49
Neigh   | 0.017005   | 0.017005   | 0.017005   |   0.0 |  6.65
Comm    | 0.0072557  | 0.0072557  | 0.0072557  |   0.0 |  2.84
Output  | 3.6292e-05 | 3.6292e-05 | 3.6292e-05 |   0.0 |  0.01
Modify  | 0.0036656  | 0.0036656  | 0.0036656  |   0.0 |  1.43
Other   |            | 0.001692   |            |       |  0.66

Nlocal:            600 ave         600 max         600 min
Histogram: 1 0 0 0 0 0 0 0 0 0
Nghost:           3454 ave        3454 max        3454 min
Histogram: 1 0 0 0 0 0 0 0 0 0
Neighs:          60231 ave       60231 max       60231 min
Histogram: 1 0 0 0 0 0 0 0 0 0

Total # of neighbors = 60231
Ave neighs/atom = 100.385
Ave special neighs/atom = 4
Neighbor list builds = 16
Dangerous builds = 0
Generated 1 of 1 mixed pair_coeff terms from geometric mixing rule
Setting up Verlet run ...
  Unit style    : real
  Current step  : 131419
  Time step     : 1
Per MPI rank memory allocation (min/avg/max) = 7.194 | 7.194 | 7.194 Mbytes
   Step          Temp          E_pair         E_mol          TotEng         Press     
    131419   309.57958     -554.3304       357.24097      355.66652      52.361105    
    132000   288.83177     -536.13725      365.17132      344.7447      -24.065572    
    132669   297.76837     -535.07256      361.32249      357.91692      589.25633    
Loop time of 0.237077 on 1 procs for 1250 steps with 600 atoms

Performance: 455.549 ns/day, 0.053 hours/ns, 5272.559 timesteps/s, 3.164 Matom-step/s
99.9% CPU use with 1 MPI tasks x 1 OpenMP threads

MPI task timing breakdown:
Section |  min time  |  avg time  |  max time  |%varavg| %total
---------------------------------------------------------------
Pair    | 0.18421    | 0.18421    | 0.18421    |   0.0 | 77.70
Bond    | 0.025249   | 0.025249   | 0.025249   |   0.0 | 10.65
Neigh   | 0.015706   | 0.015706   | 0.015706   |   0.0 |  6.62
Comm    | 0.006829   | 0.006829   | 0.006829   |   0.0 |  2.88
Output  | 3.8666e-05 | 3.8666e-05 | 3.8666e-05 |   0.0 |  0.02
Modify  | 0.0034634  | 0.0034634  | 0.0034634  |   0.0 |  1.46
Other   |            | 0.001576   |            |       |  0.66

Nlocal:            600 ave         600 max         600 min
Histogram: 1 0 0 0 0 0 0 0 0 0
Nghost:           3344 ave        3344 max        3344 min
Histogram: 1 0 0 0 0 0 0 0 0 0
Neighs:          60412 ave       60412 max       60412 min
Histogram: 1 0 0 0 0 0 0 0 0 0

Total # of neighbors = 60412
Ave neighs/atom = 100.68667
Ave special neighs/atom = 4
Neighbor list builds = 16
Dangerous builds = 0
defm_id=002
Generated 1 of 1 mixed pair_coeff terms from geometric mixing rule
Setting up Verlet run ...
  Unit style    : real
  Current step  : 132669
  Time step     : 1
Per MPI rank memory allocation (min/avg/max) = 7.194 | 7.194 | 7.194 Mbytes
   Step          Temp          E_pair         E_mol          TotEng         Press          Volume    
    132669   297.76837     -535.07256      361.32249      357.91692      589.25633      27066.618    
    133000   305.41768     -546.63298      361.43494      360.12681     -266.16099      27671.302    
    134000   303.20763     -538.21466      356.52061      359.68476     -906.058        26902.787    
    135000   302.81197     -559.49307      347.20738      328.38666      402.82968      26733.381    
    136000   302.3585      -520.14105      357.04751      376.76916      1359.93        27778.348    
    137000   291.86657     -559.15379      372.0379       334.0134      -740.6697       26267.574    
    138000   302.83612     -511.69521      352.49824      381.51851     -63.810507      27671.302    
    139000   300.52837     -545.64108      368.5138       359.46768     -1722.4186      26902.787    
    140000   292.20156     -555.02203      348.2308       314.93619      147.16507      26733.381    
    140169   291.55824     -556.37978      359.14622      323.3452      -1270.3768      26926.751    
Loop time of 1.52184 on 1 procs for 7500 steps with 600 atoms

Performance: 425.799 ns/day, 0.056 hours/ns, 4928.232 timesteps/s, 2.957 Matom-step/s
99.8% CPU use with 1 MPI tasks x 1 OpenMP threads

MPI task timing breakdown:
Section |  min time  |  avg time  |  max time  |%varavg| %total
---------------------------------------------------------------
Pair    | 1.1608     | 1.1608     | 1.1608     |   0.0 | 76.28
Bond    | 0.17836    | 0.17836    | 0.17836    |   0.0 | 11.72
Neigh   | 0.10385    | 0.10385    | 0.10385    |   0.0 |  6.82
Comm    | 0.040803   | 0.040803   | 0.040803   |   0.0 |  2.68
Output  | 0.00021996 | 0.00021996 | 0.00021996 |   0.0 |  0.01
Modify  | 0.028524   | 0.028524   | 0.028524   |   0.0 |  1.87
Other   |            | 0.00926    |            |       |  0.61

Nlocal:            600 ave         600 max         600 min
Histogram: 1 0 0 0 0 0 0 0 0 0
Nghost:           3322 ave        3322 max        3322 min
Histogram: 1 0 0 0 0 0 0 0 0 0
Neighs:          60271 ave       60271 max       60271 min
Histogram: 1 0 0 0 0 0 0 0 0 0

Total # of neighbors = 60271
Ave neighs/atom = 100.45167
Ave special neighs/atom = 4
Neighbor list builds = 104
Dangerous builds = 0
fact=0.992336321029088
Generated 1 of 1 mixed pair_coeff terms from geometric mixing rule
Setting up Verlet run ...
  Unit style    : real
  Current step  : 140169
  Time step     : 1
Per MPI rank memory allocation (min/avg/max) = 7.194 | 7.194 | 7.194 Mbytes
   Step          Temp          E_pair         E_mol          TotEng         Press          Volume    
    140169   291.55824     -556.37978      359.14622      323.3452      -1270.3768      26926.751    
    141000   304.10834     -551.20179      373.44625      365.23149     -2454.3377      26517.284    
    141419   303.51609     -560.77055      370.91176      352.07077      60.469825      26321.677    
Loop time of 0.256483 on 1 procs for 1250 steps with 600 atoms

Performance: 421.080 ns/day, 0.057 hours/ns, 4873.615 timesteps/s, 2.924 Matom-step/s
296.2% CPU use with 1 MPI tasks x 1 OpenMP threads

MPI task timing breakdown:
Section |  min time  |  avg time  |  max time  |%varavg| %total
---------------------------------------------------------------
Pair    | 0.19823    | 0.19823    | 0.19823    |   0.0 | 77.29
Bond    | 0.026976   | 0.026976   | 0.026976   |   0.0 | 10.52
Neigh   | 0.018426   | 0.018426   | 0.018426   |   0.0 |  7.18
Comm    | 0.0073171  | 0.0073171  | 0.0073171  |   0.0 |  2.85
Output  | 4.9292e-05 | 4.9292e-05 | 4.9292e-05 |   0.0 |  0.02
Modify  | 0.0037395  | 0.0037395  | 0.0037395  |   0.0 |  1.46
Other   |            | 0.001748   |            |       |  0.68

Nlocal:            600 ave         600 max         600 min
Histogram: 1 0 0 0 0 0 0 0 0 0
Nghost:           3401 ave        3401 max        3401 min
Histogram: 1 0 0 0 0 0 0 0 0 0
Neighs:          61904 ave       61904 max       61904 min
Histogram: 1 0 0 0 0 0 0 0 0 0

Total # of neighbors = 61904
Ave neighs/atom = 103.17333
Ave special neighs/atom = 4
Neighbor list builds = 17
Dangerous builds = 0
Generated 1 of 1 mixed pair_coeff terms from geometric mixing rule
Setting up Verlet run ...
  Unit style    : real
  Current step  : 141419
  Time step     : 1
Per MPI rank memory allocation (min/avg/max) = 7.194 | 7.194 | 7.194 Mbytes
   Step          Temp          E_pair         E_mol          TotEng         Press     
    141419   303.51609     -560.77055      370.91176      352.07077      60.469825    
    142000   304.91258     -563.22314      363.90339      345.10326     -586.18068    
    142669   301.10177     -559.02561      360.25898      338.85215     -1529.4897    
Loop time of 0.245907 on 1 procs for 1250 steps with 600 atoms

Performance: 439.190 ns/day, 0.055 hours/ns, 5083.222 timesteps/s, 3.050 Matom-step/s
99.9% CPU use with 1 MPI tasks x 1 OpenMP threads

MPI task timing breakdown:
Section |  min time  |  avg time  |  max time  |%varavg| %total
---------------------------------------------------------------
Pair    | 0.192      | 0.192      | 0.192      |   0.0 | 78.08
Bond    | 0.0254     | 0.0254     | 0.0254     |   0.0 | 10.33
Neigh   | 0.016451   | 0.016451   | 0.016451   |   0.0 |  6.69
Comm    | 0.0069349  | 0.0069349  | 0.0069349  |   0.0 |  2.82
Output  | 5.6959e-05 | 5.6959e-05 | 5.6959e-05 |   0.0 |  0.02
Modify  | 0.0034723  | 0.0034723  | 0.0034723  |   0.0 |  1.41
Other   |            | 0.001591   |            |       |  0.65

Nlocal:            600 ave         600 max         600 min
Histogram: 1 0 0 0 0 0 0 0 0 0
Nghost:           3423 ave        3423 max        3423 min
Histogram: 1 0 0 0 0 0 0 0 0 0
Neighs:          61784 ave       61784 max       61784 min
Histogram: 1 0 0 0 0 0 0 0 0 0

Total # of neighbors = 61784
Ave neighs/atom = 102.97333
Ave special neighs/atom = 4
Neighbor list builds = 16
Dangerous builds = 0
defm_id=003
Generated 1 of 1 mixed pair_coeff terms from geometric mixing rule
Setting up Verlet run ...
  Unit style    : real
  Current step  : 142669
  Time step     : 1
Per MPI rank memory allocation (min/avg/max) = 7.195 | 7.195 | 7.195 Mbytes
   Step          Temp          E_pair         E_mol          TotEng         Press          Volume    
    142669   301.10177     -559.02561      360.25898      338.85215     -1529.4897      26321.677    
    143000   299.25977     -549.26944      362.07001      347.13044      880.52184      26909.718    
    144000   302.55347     -556.80144      371.97596      355.38532     -294.55529      26162.354    
    145000   298.03267     -569.90352      374.96249      337.19786      588.89168      25997.612    
    146000   310.26134     -550.1807       357.85678      361.64932      353.0128       27013.817    
    147000   299.71124     -586.01988      367.60703      316.72314     -1628.2711      25544.625    
    148000   296.15832     -550.28733      374.26564      352.77052     -273.84977      26909.718    
    149000   308.89738     -568.95852      358.8903       341.46967     -844.19088      26162.354    
    150000   307.00009     -578.89275      346.52236      315.77987     -393.65633      25997.612    
    150169   295.26298     -570.75781      368.72747      325.16325     -144.94464      26185.659    
Loop time of 1.5491 on 1 procs for 7500 steps with 600 atoms

Performance: 418.308 ns/day, 0.057 hours/ns, 4841.532 timesteps/s, 2.905 Matom-step/s
99.8% CPU use with 1 MPI tasks x 1 OpenMP threads

MPI task timing breakdown:
Section |  min time  |  avg time  |  max time  |%varavg| %total
---------------------------------------------------------------
Pair    | 1.1886     | 1.1886     | 1.1886     |   0.0 | 76.73
Bond    | 0.17871    | 0.17871    | 0.17871    |   0.0 | 11.54
Neigh   | 0.1025     | 0.1025     | 0.1025     |   0.0 |  6.62
Comm    | 0.041177   | 0.041177   | 0.041177   |   0.0 |  2.66
Output  | 0.00023617 | 0.00023617 | 0.00023617 |   0.0 |  0.02
Modify  | 0.028588   | 0.028588   | 0.028588   |   0.0 |  1.85
Other   |            | 0.009276   |            |       |  0.60

Nlocal:            600 ave         600 max         600 min
Histogram: 1 0 0 0 0 0 0 0 0 0
Nghost:           3325 ave        3325 max        3325 min
Histogram: 1 0 0 0 0 0 0 0 0 0
Neighs:          61998 ave       61998 max       61998 min
Histogram: 1 0 0 0 0 0 0 0 0 0

Total # of neighbors = 61998
Ave neighs/atom = 103.33
Ave special neighs/atom = 4
Neighbor list builds = 101
Dangerous builds = 0
fact=0.992336010629997
Generated 1 of 1 mixed pair_coeff terms from geometric mixing rule
Setting up Verlet run ...
  Unit style    : real
  Current step  : 150169
  Time step     : 1
Per MPI rank memory allocation (min/avg/max) = 7.196 | 7.196 | 7.196 Mbytes
   Step          Temp          E_pair         E_mol          TotEng         Press          Volume    
    150169   295.39396     -570.75781      368.72747      325.39712     -144.53637      26185.659    
    151000   306.05323     -572.01286      350.53906      324.98583     -1852.9051      25787.446    
    151419   308.08668     -581.10323      350.39916      319.3863      -412.60493      25597.215    
Loop time of 0.26465 on 1 procs for 1250 steps with 600 atoms

Performance: 408.086 ns/day, 0.059 hours/ns, 4723.222 timesteps/s, 2.834 Matom-step/s
290.4% CPU use with 1 MPI tasks x 1 OpenMP threads

MPI task timing breakdown:
Section |  min time  |  avg time  |  max time  |%varavg| %total
---------------------------------------------------------------
Pair    | 0.20661    | 0.20661    | 0.20661    |   0.0 | 78.07
Bond    | 0.026772   | 0.026772   | 0.026772   |   0.0 | 10.12
Neigh   | 0.018543   | 0.018543   | 0.018543   |   0.0 |  7.01
Comm    | 0.0072479  | 0.0072479  | 0.0072479  |   0.0 |  2.74
Output  | 4.9125e-05 | 4.9125e-05 | 4.9125e-05 |   0.0 |  0.02
Modify  | 0.003686   | 0.003686   | 0.003686   |   0.0 |  1.39
Other   |            | 0.001742   |            |       |  0.66

Nlocal:            600 ave         600 max         600 min
Histogram: 1 0 0 0 0 0 0 0 0 0
Nghost:           3366 ave        3366 max        3366 min
Histogram: 1 0 0 0 0 0 0 0 0 0
Neighs:          63729 ave       63729 max       63729 min
Histogram: 1 0 0 0 0 0 0 0 0 0

Total # of neighbors = 63729
Ave neighs/atom = 106.215
Ave special neighs/atom = 4
Neighbor list builds = 17
Dangerous builds = 0
Generated 1 of 1 mixed pair_coeff terms from geometric mixing rule
Setting up Verlet run ...
  Unit style    : real
  Current step  : 151419
  Time step     : 1
Per MPI rank memory allocation (min/avg/max) = 7.196 | 7.196 | 7.196 Mbytes
   Step          Temp          E_pair         E_mol          TotEng         Press     
    151419   308.08668     -581.10323      350.39916      319.3863      -412.60493    
    152000   305.05329     -577.05204      346.22727      313.84947     -899.28388    
    152669   307.20487     -591.95323      367.20627      323.76895      228.42509    
Loop time of 0.25603 on 1 procs for 1250 steps with 600 atoms

Performance: 421.826 ns/day, 0.057 hours/ns, 4882.243 timesteps/s, 2.929 Matom-step/s
99.9% CPU use with 1 MPI tasks x 1 OpenMP threads

MPI task timing breakdown:
Section |  min time  |  avg time  |  max time  |%varavg| %total
---------------------------------------------------------------
Pair    | 0.20045    | 0.20045    | 0.20045    |   0.0 | 78.29
Bond    | 0.025473   | 0.025473   | 0.025473   |   0.0 |  9.95
Neigh   | 0.017857   | 0.017857   | 0.017857   |   0.0 |  6.97
Comm    | 0.007042   | 0.007042   | 0.007042   |   0.0 |  2.75
Output  | 5.0001e-05 | 5.0001e-05 | 5.0001e-05 |   0.0 |  0.02
Modify  | 0.0035201  | 0.0035201  | 0.0035201  |   0.0 |  1.37
Other   |            | 0.001633   |            |       |  0.64

Nlocal:            600 ave         600 max         600 min
Histogram: 1 0 0 0 0 0 0 0 0 0
Nghost:           3468 ave        3468 max        3468 min
Histogram: 1 0 0 0 0 0 0 0 0 0
Neighs:          63812 ave       63812 max       63812 min
Histogram: 1 0 0 0 0 0 0 0 0 0

Total # of neighbors = 63812
Ave neighs/atom = 106.35333
Ave special neighs/atom = 4
Neighbor list builds = 17
Dangerous builds = 0
defm_id=004
Generated 1 of 1 mixed pair_coeff terms from geometric mixing rule
Setting up Verlet run ...
  Unit style    : real
  Current step  : 152669
  Time step     : 1
Per MPI rank memory allocation (min/avg/max) = 7.196 | 7.196 | 7.196 Mbytes
   Step          Temp          E_pair         E_mol          TotEng         Press          Volume    
    152669   307.20487     -591.95323      367.20627      323.76895      228.42509      25597.215    
    153000   301.08128     -584.08738      378.82264      332.31747     -436.39579      26169.071    
    154000   303.92392     -584.39807      370.07518      328.33486     -713.72554      25442.277    
    155000   297.4006      -583.70842      366.26277      313.56468      343.95093      25282.068    
    156000   303.59884     -535.07865      363.35989      370.35856      306.31276      26270.305    
    157000   290.28777     -592.02966      390.31916      316.59983     -1945.5447      24841.549    
    158000   295.66897     -556.06466      394.49339      366.34723      535.70153      26169.071    
    159000   304.10957     -575.44833      376.78852      344.32941     -265.22161      25442.277    
    160000   300.5825      -590.04158      372.36792      319.01796      150.33552      25282.068    
    160169   307.03124     -568.12839      346.56022      326.63771      362.46947      25464.941    
Loop time of 1.59661 on 1 procs for 7500 steps with 600 atoms

Performance: 405.859 ns/day, 0.059 hours/ns, 4697.445 timesteps/s, 2.818 Matom-step/s
99.8% CPU use with 1 MPI tasks x 1 OpenMP threads

MPI task timing breakdown:
Section |  min time  |  avg time  |  max time  |%varavg| %total
---------------------------------------------------------------
Pair    | 1.2328     | 1.2328     | 1.2328     |   0.0 | 77.21
Bond    | 0.17903    | 0.17903    | 0.17903    |   0.0 | 11.21
Neigh   | 0.1048     | 0.1048     | 0.1048     |   0.0 |  6.56
Comm    | 0.041854   | 0.041854   | 0.041854   |   0.0 |  2.62
Output  | 0.00024455 | 0.00024455 | 0.00024455 |   0.0 |  0.02
Modify  | 0.028632   | 0.028632   | 0.028632   |   0.0 |  1.79
Other   |            | 0.009231   |            |       |  0.58

Nlocal:            600 ave         600 max         600 min
Histogram: 1 0 0 0 0 0 0 0 0 0
Nghost:           3440 ave        3440 max        3440 min
Histogram: 1 0 0 0 0 0 0 0 0 0
Neighs:          63767 ave       63767 max       63767 min
Histogram: 1 0 0 0 0 0 0 0 0 0

Total # of neighbors = 63767
Ave neighs/atom = 106.27833
Ave special neighs/atom = 4
Neighbor list builds = 101
Dangerous builds = 0
fact=0.992336306680696
Generated 1 of 1 mixed pair_coeff terms from geometric mixing rule
Setting up Verlet run ...
  Unit style    : real
  Current step  : 160169
  Time step     : 1
Per MPI rank memory allocation (min/avg/max) = 7.196 | 7.196 | 7.196 Mbytes
   Step          Temp          E_pair         E_mol          TotEng         Press          Volume    
    160169   307.0966      -568.12839      346.56022      326.75442      362.67898      25464.941    
    161000   294.29754     -594.30057      383.37588      314.54511     -1319.3487      25077.702    
    161419   299.32196     -590.22671      372.33461      316.54883     -530.61211      24892.714    
Loop time of 0.280171 on 1 procs for 1250 steps with 600 atoms

Performance: 385.479 ns/day, 0.062 hours/ns, 4461.567 timesteps/s, 2.677 Matom-step/s
280.3% CPU use with 1 MPI tasks x 1 OpenMP threads

MPI task timing breakdown:
Section |  min time  |  avg time  |  max time  |%varavg| %total
---------------------------------------------------------------
Pair    | 0.2216     | 0.2216     | 0.2216     |   0.0 | 79.10
Bond    | 0.026857   | 0.026857   | 0.026857   |   0.0 |  9.59
Neigh   | 0.01883    | 0.01883    | 0.01883    |   0.0 |  6.72
Comm    | 0.007433   | 0.007433   | 0.007433   |   0.0 |  2.65
Output  | 6.1916e-05 | 6.1916e-05 | 6.1916e-05 |   0.0 |  0.02
Modify  | 0.003666   | 0.003666   | 0.003666   |   0.0 |  1.31
Other   |            | 0.00172    |            |       |  0.61

Nlocal:            600 ave         600 max         600 min
Histogram: 1 0 0 0 0 0 0 0 0 0
Nghost:           3441 ave        3441 max        3441 min
Histogram: 1 0 0 0 0 0 0 0 0 0
Neighs:          65258 ave       65258 max       65258 min
Histogram: 1 0 0 0 0 0 0 0 0 0

Total # of neighbors = 65258
Ave neighs/atom = 108.76333
Ave special neighs/atom = 4
Neighbor list builds = 17
Dangerous builds = 0
Generated 1 of 1 mixed pair_coeff terms from geometric mixing rule
Setting up Verlet run ...
  Unit style    : real
  Current step  : 161419
  Time step     : 1
Per MPI rank memory allocation (min/avg/max) = 7.196 | 7.196 | 7.196 Mbytes
   Step          Temp          E_pair         E_mol          TotEng         Press     
    161419   299.32196     -590.22671      372.33461      316.54883     -530.61211    
    162000   305.39        -594.38845      359.9589       310.8459      -643.33679    
    162669   300.53718     -605.02851      371.262        302.84419      761.29137    
Loop time of 0.262225 on 1 procs for 1250 steps with 600 atoms

Performance: 411.860 ns/day, 0.058 hours/ns, 4766.896 timesteps/s, 2.860 Matom-step/s
99.9% CPU use with 1 MPI tasks x 1 OpenMP threads

MPI task timing breakdown:
Section |  min time  |  avg time  |  max time  |%varavg| %total
---------------------------------------------------------------
Pair    | 0.20773    | 0.20773    | 0.20773    |   0.0 | 79.22
Bond    | 0.025452   | 0.025452   | 0.025452   |   0.0 |  9.71
Neigh   | 0.016702   | 0.016702   | 0.016702   |   0.0 |  6.37
Comm    | 0.0071421  | 0.0071421  | 0.0071421  |   0.0 |  2.72
Output  | 3.8959e-05 | 3.8959e-05 | 3.8959e-05 |   0.0 |  0.01
Modify  | 0.0035144  | 0.0035144  | 0.0035144  |   0.0 |  1.34
Other   |            | 0.00165    |            |       |  0.63

Nlocal:            600 ave         600 max         600 min
Histogram: 1 0 0 0 0 0 0 0 0 0
Nghost:           3434 ave        3434 max        3434 min
Histogram: 1 0 0 0 0 0 0 0 0 0
Neighs:          65165 ave       65165 max       65165 min
Histogram: 1 0 0 0 0 0 0 0 0 0

Total # of neighbors = 65165
Ave neighs/atom = 108.60833
Ave special neighs/atom = 4
Neighbor list builds = 16
Dangerous builds = 0
defm_id=005
Generated 1 of 1 mixed pair_coeff terms from geometric mixing rule
Setting up Verlet run ...
  Unit style    : real
  Current step  : 162669
  Time step     : 1
Per MPI rank memory allocation (min/avg/max) = 7.196 | 7.196 | 7.196 Mbytes
   Step          Temp          E_pair         E_mol          TotEng         Press          Volume    
    162669   300.53718     -605.02851      371.262        302.84419      761.29137      24892.714    
    163000   291.16937     -580.35704      378.97378      318.50118     -546.75579      25448.831    
    164000   307.99827     -586.18105      358.3539       322.10537     -490.94945      24742.04     
    165000   302.60971     -602.69922      350.13739      287.74939      550.63421      24586.241    
    166000   302.69628     -582.52948      373.83037      331.76667      835.63196      25547.279    
    167000   299.27914     -622.21843      365.40098      277.54701     -1686.2205      24157.846    
    168000   304.78188     -584.65265      364.345        323.88198      157.36141      25448.831    
    169000   306.5073      -609.92878      363.44839      300.79001     -1862.1572      24742.04     
    170000   301.07673     -602.55218      350.75835      285.78023     -326.40859      24586.241    
    170169   301.24181     -590.57333      351.27784      298.57333      285.12598      24764.08     
Loop time of 1.67056 on 1 procs for 7500 steps with 600 atoms

Performance: 387.893 ns/day, 0.062 hours/ns, 4489.501 timesteps/s, 2.694 Matom-step/s
99.8% CPU use with 1 MPI tasks x 1 OpenMP threads

MPI task timing breakdown:
Section |  min time  |  avg time  |  max time  |%varavg| %total
---------------------------------------------------------------
Pair    | 1.3027     | 1.3027     | 1.3027     |   0.0 | 77.98
Bond    | 0.17911    | 0.17911    | 0.17911    |   0.0 | 10.72
Neigh   | 0.10789    | 0.10789    | 0.10789    |   0.0 |  6.46
Comm    | 0.042439   | 0.042439   | 0.042439   |   0.0 |  2.54
Output  | 0.00024279 | 0.00024279 | 0.00024279 |   0.0 |  0.01
Modify  | 0.028795   | 0.028795   | 0.028795   |   0.0 |  1.72
Other   |            | 0.009389   |            |       |  0.56

Nlocal:            600 ave         600 max         600 min
Histogram: 1 0 0 0 0 0 0 0 0 0
Nghost:           3408 ave        3408 max        3408 min
Histogram: 1 0 0 0 0 0 0 0 0 0
Neighs:          65604 ave       65604 max       65604 min
Histogram: 1 0 0 0 0 0 0 0 0 0

Total # of neighbors = 65604
Ave neighs/atom = 109.34
Ave special neighs/atom = 4
Neighbor list builds = 101
Dangerous builds = 0
fact=0.992336091583353
Generated 1 of 1 mixed pair_coeff terms from geometric mixing rule
Setting up Verlet run ...
  Unit style    : real
  Current step  : 170169
  Time step     : 1
Per MPI rank memory allocation (min/avg/max) = 7.196 | 7.196 | 7.196 Mbytes
   Step          Temp          E_pair         E_mol          TotEng         Press          Volume    
    170169   301.32875     -590.57333      351.27784      298.72857      285.41254      24764.08     
    171000   308.42164     -612.84654      371.08621      308.92811     -1772.2464      24387.489    
    171419   301.44774     -615.38744      383.20779      306.05686      438.63534      24207.587    
Loop time of 0.283735 on 1 procs for 1250 steps with 600 atoms

Performance: 380.637 ns/day, 0.063 hours/ns, 4405.526 timesteps/s, 2.643 Matom-step/s
277.4% CPU use with 1 MPI tasks x 1 OpenMP threads

MPI task timing breakdown:
Section |  min time  |  avg time  |  max time  |%varavg| %total
---------------------------------------------------------------
Pair    | 0.22568    | 0.22568    | 0.22568    |   0.0 | 79.54
Bond    | 0.026956   | 0.026956   | 0.026956   |   0.0 |  9.50
Neigh   | 0.018225   | 0.018225   | 0.018225   |   0.0 |  6.42
Comm    | 0.0074201  | 0.0074201  | 0.0074201  |   0.0 |  2.62
Output  | 5.4708e-05 | 5.4708e-05 | 5.4708e-05 |   0.0 |  0.02
Modify  | 0.0036708  | 0.0036708  | 0.0036708  |   0.0 |  1.29
Other   |            | 0.001728   |            |       |  0.61

Nlocal:            600 ave         600 max         600 min
Histogram: 1 0 0 0 0 0 0 0 0 0
Nghost:           3510 ave        3510 max        3510 min
Histogram: 1 0 0 0 0 0 0 0 0 0
Neighs:          66948 ave       66948 max       66948 min
Histogram: 1 0 0 0 0 0 0 0 0 0

Total # of neighbors = 66948
Ave neighs/atom = 111.58
Ave special neighs/atom = 4
Neighbor list builds = 16
Dangerous builds = 0
Generated 1 of 1 mixed pair_coeff terms from geometric mixing rule
Setting up Verlet run ...
  Unit style    : real
  Current step  : 171419
  Time step     : 1
Per MPI rank memory allocation (min/avg/max) = 7.196 | 7.196 | 7.196 Mbytes
   Step          Temp          E_pair         E_mol          TotEng         Press     
    171419   301.44774     -615.38744      383.20779      306.05686      438.63534    
    172000   291.54441     -606.11071      375.80001      290.24335      373.42384    
    172669   305.63955     -610.61342      361.01927      296.12687     -75.91632     
Loop time of 0.271788 on 1 procs for 1250 steps with 600 atoms

Performance: 397.368 ns/day, 0.060 hours/ns, 4599.171 timesteps/s, 2.760 Matom-step/s
99.9% CPU use with 1 MPI tasks x 1 OpenMP threads

MPI task timing breakdown:
Section |  min time  |  avg time  |  max time  |%varavg| %total
---------------------------------------------------------------
Pair    | 0.21698    | 0.21698    | 0.21698    |   0.0 | 79.84
Bond    | 0.025892   | 0.025892   | 0.025892   |   0.0 |  9.53
Neigh   | 0.016349   | 0.016349   | 0.016349   |   0.0 |  6.02
Comm    | 0.0072561  | 0.0072561  | 0.0072561  |   0.0 |  2.67
Output  | 5.0709e-05 | 5.0709e-05 | 5.0709e-05 |   0.0 |  0.02
Modify  | 0.0035678  | 0.0035678  | 0.0035678  |   0.0 |  1.31
Other   |            | 0.00169    |            |       |  0.62

Nlocal:            600 ave         600 max         600 min
Histogram: 1 0 0 0 0 0 0 0 0 0
Nghost:           3454 ave        3454 max        3454 min
Histogram: 1 0 0 0 0 0 0 0 0 0
Neighs:          67027 ave       67027 max       67027 min
Histogram: 1 0 0 0 0 0 0 0 0 0

Total # of neighbors = 67027
Ave neighs/atom = 111.71167
Ave special neighs/atom = 4
Neighbor list builds = 15
Dangerous builds = 0
defm_id=006
Generated 1 of 1 mixed pair_coeff terms from geometric mixing rule
Setting up Verlet run ...
  Unit style    : real
  Current step  : 172669
  Time step     : 1
Per MPI rank memory allocation (min/avg/max) = 7.196 | 7.196 | 7.196 Mbytes
   Step          Temp          E_pair         E_mol          TotEng         Press          Volume    
    172669   305.63955     -610.61342      361.01927      296.12687     -75.91632       24207.587    
    173000   309.99551     -606.48979      358.59941      305.60822      203.87806      24748.398    
    174000   296.90942     -605.60815      388.10344      312.62861     -1459.8617      24061.061    
    175000   306.8665      -627.77631      363.95321      284.08865      36.330899      23909.55     
    176000   298.99561     -596.31517      384.86101      322.40406      298.57006      24844.137    
    177000   291.51603     -624.69231      396.20798      292.01906     -835.30147      23492.945    
    178000   300.76386     -605.25216      382.00116      313.76443     -591.55588      24748.398    
    179000   291.46308     -609.51956      396.24882      307.13811     -1086.6255      24061.061    
    180000   297.93178     -619.18063      361.97866      274.75679     -777.9243       23909.55     
    180169   301.65616     -622.34944      369.01881      285.27801     -760.41228      24082.494    
Loop time of 1.72895 on 1 procs for 7500 steps with 600 atoms

Performance: 374.795 ns/day, 0.064 hours/ns, 4337.904 timesteps/s, 2.603 Matom-step/s
99.8% CPU use with 1 MPI tasks x 1 OpenMP threads

MPI task timing breakdown:
Section |  min time  |  avg time  |  max time  |%varavg| %total
---------------------------------------------------------------
Pair    | 1.36       | 1.36       | 1.36       |   0.0 | 78.66
Bond    | 0.17961    | 0.17961    | 0.17961    |   0.0 | 10.39
Neigh   | 0.10799    | 0.10799    | 0.10799    |   0.0 |  6.25
Comm    | 0.042771   | 0.042771   | 0.042771   |   0.0 |  2.47
Output  | 0.00026588 | 0.00026588 | 0.00026588 |   0.0 |  0.02
Modify  | 0.028983   | 0.028983   | 0.028983   |   0.0 |  1.68
Other   |            | 0.009301   |            |       |  0.54

Nlocal:            600 ave         600 max         600 min
Histogram: 1 0 0 0 0 0 0 0 0 0
Nghost:           3448 ave        3448 max        3448 min
Histogram: 1 0 0 0 0 0 0 0 0 0
Neighs:          67443 ave       67443 max       67443 min
Histogram: 1 0 0 0 0 0 0 0 0 0

Total # of neighbors = 67443
Ave neighs/atom = 112.405
Ave special neighs/atom = 4
Neighbor list builds = 100
Dangerous builds = 0
fact=0.992336170802567
Generated 1 of 1 mixed pair_coeff terms from geometric mixing rule
Setting up Verlet run ...
  Unit style    : real
  Current step  : 180169
  Time step     : 1
Per MPI rank memory allocation (min/avg/max) = 7.196 | 7.196 | 7.196 Mbytes
   Step          Temp          E_pair         E_mol          TotEng         Press          Volume    
    180169   301.65616     -622.34944      369.01881      285.27801     -760.41228      24082.494    
    181000   302.08148     -626.669        365.73733      278.43639     -1993.2604      23716.272    
    181419   300.3367      -643.85993      380.33206      272.72486      591.06973      23541.323    
Loop time of 0.300841 on 1 procs for 1250 steps with 600 atoms

Performance: 358.993 ns/day, 0.067 hours/ns, 4155.016 timesteps/s, 2.493 Matom-step/s
267.7% CPU use with 1 MPI tasks x 1 OpenMP threads

MPI task timing breakdown:
Section |  min time  |  avg time  |  max time  |%varavg| %total
---------------------------------------------------------------
Pair    | 0.2431     | 0.2431     | 0.2431     |   0.0 | 80.81
Bond    | 0.026525   | 0.026525   | 0.026525   |   0.0 |  8.82
Neigh   | 0.018344   | 0.018344   | 0.018344   |   0.0 |  6.10
Comm    | 0.0074483  | 0.0074483  | 0.0074483  |   0.0 |  2.48
Output  | 7.3875e-05 | 7.3875e-05 | 7.3875e-05 |   0.0 |  0.02
Modify  | 0.0036695  | 0.0036695  | 0.0036695  |   0.0 |  1.22
Other   |            | 0.001682   |            |       |  0.56

Nlocal:            600 ave         600 max         600 min
Histogram: 1 0 0 0 0 0 0 0 0 0
Nghost:           3558 ave        3558 max        3558 min
Histogram: 1 0 0 0 0 0 0 0 0 0
Neighs:          68920 ave       68920 max       68920 min
Histogram: 1 0 0 0 0 0 0 0 0 0

Total # of neighbors = 68920
Ave neighs/atom = 114.86667
Ave special neighs/atom = 4
Neighbor list builds = 16
Dangerous builds = 0
Generated 1 of 1 mixed pair_coeff terms from geometric mixing rule
Setting up Verlet run ...
  Unit style    : real
  Current step  : 181419
  Time step     : 1
Per MPI rank memory allocation (min/avg/max) = 7.196 | 7.196 | 7.196 Mbytes
   Step          Temp          E_pair         E_mol          TotEng         Press     
    181419   300.3367      -643.85993      380.33206      272.72486      591.06973    
    182000   297.70464     -640.63171      368.75652      259.678        10.778005    
    182669   309.13901     -642.79009      359.16964      268.34886      86.094363    
Loop time of 0.281893 on 1 procs for 1250 steps with 600 atoms

Performance: 383.124 ns/day, 0.063 hours/ns, 4434.308 timesteps/s, 2.661 Matom-step/s
99.9% CPU use with 1 MPI tasks x 1 OpenMP threads

MPI task timing breakdown:
Section |  min time  |  avg time  |  max time  |%varavg| %total
---------------------------------------------------------------
Pair    | 0.22676    | 0.22676    | 0.22676    |   0.0 | 80.44
Bond    | 0.025391   | 0.025391   | 0.025391   |   0.0 |  9.01
Neigh   | 0.01727    | 0.01727    | 0.01727    |   0.0 |  6.13
Comm    | 0.0072745  | 0.0072745  | 0.0072745  |   0.0 |  2.58
Output  | 4.4958e-05 | 4.4958e-05 | 4.4958e-05 |   0.0 |  0.02
Modify  | 0.0035153  | 0.0035153  | 0.0035153  |   0.0 |  1.25
Other   |            | 0.001637   |            |       |  0.58

Nlocal:            600 ave         600 max         600 min
Histogram: 1 0 0 0 0 0 0 0 0 0
Nghost:           3516 ave        3516 max        3516 min
Histogram: 1 0 0 0 0 0 0 0 0 0
Neighs:          69033 ave       69033 max       69033 min
Histogram: 1 0 0 0 0 0 0 0 0 0

Total # of neighbors = 69033
Ave neighs/atom = 115.055
Ave special neighs/atom = 4
Neighbor list builds = 16
Dangerous builds = 0
defm_id=007
Generated 1 of 1 mixed pair_coeff terms from geometric mixing rule
Setting up Verlet run ...
  Unit style    : real
  Current step  : 182669
  Time step     : 1
Per MPI rank memory allocation (min/avg/max) = 7.196 | 7.196 | 7.196 Mbytes
   Step          Temp          E_pair         E_mol          TotEng         Press          Volume    
    182669   309.13901     -642.79009      359.16964      268.34886      86.094363      23541.323    
    183000   302.16403     -632.92854      375.40431      281.99121      637.9926       24067.249    
    184000   300.62745     -635.89557      362.73881      263.61513      402.20607      23398.829    
    185000   307.73912     -659.93254      354.0438       243.58106      764.51358      23251.488    
    186000   301.17824     -625.77177      372.09035      284.07391      383.43308      24160.353    
    187000   297.23726     -659.78103      362.09854      233.0362      -1374.1659      22846.35     
    188000   296.23902     -637.53432      358.83198      250.23398      384.41095      24067.249    
    189000   308.24373     -648.08745      362.78597      265.06931     -790.0589       23398.829    
    190000   307.6862      -668.18361      354.06221      235.25392      253.44097      23251.488    
    190169   301.59353     -650.47792      357.21404      245.23294     -874.73838      23419.673    
Loop time of 1.7842 on 1 procs for 7500 steps with 600 atoms

Performance: 363.188 ns/day, 0.066 hours/ns, 4203.561 timesteps/s, 2.522 Matom-step/s
99.8% CPU use with 1 MPI tasks x 1 OpenMP threads

MPI task timing breakdown:
Section |  min time  |  avg time  |  max time  |%varavg| %total
---------------------------------------------------------------
Pair    | 1.4139     | 1.4139     | 1.4139     |   0.0 | 79.24
Bond    | 0.17813    | 0.17813    | 0.17813    |   0.0 |  9.98
Neigh   | 0.10976    | 0.10976    | 0.10976    |   0.0 |  6.15
Comm    | 0.043914   | 0.043914   | 0.043914   |   0.0 |  2.46
Output  | 0.00024042 | 0.00024042 | 0.00024042 |   0.0 |  0.01
Modify  | 0.028887   | 0.028887   | 0.028887   |   0.0 |  1.62
Other   |            | 0.009397   |            |       |  0.53

Nlocal:            600 ave         600 max         600 min
Histogram: 1 0 0 0 0 0 0 0 0 0
Nghost:           3602 ave        3602 max        3602 min
Histogram: 1 0 0 0 0 0 0 0 0 0
Neighs:          69229 ave       69229 max       69229 min
Histogram: 1 0 0 0 0 0 0 0 0 0

Total # of neighbors = 69229
Ave neighs/atom = 115.38167
Ave special neighs/atom = 4
Neighbor list builds = 100
Dangerous builds = 0
fact=1
Generated 1 of 1 mixed pair_coeff terms from geometric mixing rule
Setting up Verlet run ...
  Unit style    : real
  Current step  : 190169
  Time step     : 1
Per MPI rank memory allocation (min/avg/max) = 7.197 | 7.197 | 7.197 Mbytes
   Step          Temp          E_pair         E_mol          TotEng         Press     
    190169   301.59353     -650.47792      357.21404      245.23294     -874.73838    
    191000   302.90696     -645.30887      367.61149      263.14458     -1990.7865    
    192000   304.88684     -639.78031      354.4468       259.04354     -464.83431    
    193000   297.46265     -632.6111       377.93332      276.44334      1410.2934    
    194000   296.32187     -641.72684      369.34401      256.70141      655.87667    
    195000   297.20788     -628.46779      362.65975      264.85818      0.46434544   
    196000   303.41997     -622.45707      338.27691      257.57777      280.10261    
    197000   300.86456     -648.76066      371.89056      260.32514     -1022.2021    
    198000   303.77723     -636.21193      350.6397       256.82361     -734.77838    
    199000   304.31614     -631.45777      352.5852       264.48549      135.74353    
    200000   301.39886     -648.02006      370.27205      260.40122      203.01819    
    201000   300.51931     -639.50463      365.34255      262.41672      176.97932    
    202000   296.99436     -637.35009      361.97569      254.91057     -857.5988     
    203000   297.28526     -633.67418      371.25881      268.38901     -845.83481    
    204000   302.92075     -625.63727      354.15615      269.38546     -298.11224    
    205000   307.77031     -633.63284      351.83458      267.72724      1056.9394    
    206000   302.16349     -645.12106      371.9894       266.38284      1147.4424    
    207000   286.27235     -638.56879      391.61871      264.19069      292.16709    
    208000   301.16366     -628.40463      356.28344      265.60809     -1023.9966    
    209000   297.12342     -633.13333      365.46766      262.84975     -103.16674    
    210000   310.25858     -634.60963      352.50242      271.86112      289.18468    
    211000   308.18458     -645.83604      382.24352      286.67265     -152.42494    
    212000   310.46898     -651.48224      375.68657      278.54832     -984.55206    
    213000   295.00271     -632.18518      391.5069       286.05061     -1166.6156    
    214000   305.13186     -643.17643      377.26075      278.89885      809.25721    
    215000   307.68024     -643.46683      365.54871      271.44656      153.68984    
    216000   308.7114      -639.70859      356.00712      267.50434      606.82613    
    217000   299.78549     -640.29042      375.39109      270.36922     -399.83714    
    218000   307.34968     -639.44082      355.90065      265.23429      335.83873    
    219000   303.11539     -648.34235      376.25148      269.12325     -1193.886     
    220000   303.23675     -629.03106      368.39323      280.79297      92.648448    
    221000   299.17696     -634.09287      380.59158      280.68074     -737.52956    
    222000   306.87274     -632.91359      371.69079      286.70008      328.298      
    223000   284.83296     -630.61126      408.21592      286.1754      -876.54732    
    224000   296.88142     -624.76706      385.03102      290.34728      19.88146     
    225000   313.47266     -641.45794      354.49275      272.74188     -703.27801    
    226000   300.91086     -634.40058      385.78056      288.65789      109.88255    
    227000   301.41605     -647.12195      380.17247      271.23044     -818.62086    
    228000   297.16539     -638.6724       381.50574      273.42369     -607.73239    
    229000   303.14379     -630.81824      378.20772      288.65429      577.70447    
    230000   297.7259      -637.91591      374.47007      268.14531      1176.1549    
    231000   292.99269     -618.52614      384.34151      288.95534      495.00591    
    232000   305.62076     -646.60115      364.7513       263.8376      -361.83043    
    233000   293.52034     -640.72368      380.69706      264.05549     -763.9623     
    234000   297.36333     -638.1834       373.96953      266.72991     -137.73089    
    235000   298.86288     -627.74106      353.23717      259.11734      526.47615    
    236000   303.06882     -644.67399      364.09368      260.55065      6.3220686    
    237000   287.78132     -632.16447      390.97649      272.64707     -313.75823    
    238000   307.4164      -629.17421      351.91926      271.63863      16.498794    
    239000   302.85466     -640.70556      385.02938      285.07239      90.53596     
    240000   307.74791     -643.6902       372.51461      278.30991     -313.78017    
    241000   297.51395     -627.70461      381.52582      285.03392     -622.04341    
    242000   290.01585     -635.94623      391.7208       273.59939     -321.89807    
    243000   294.51683     -645.66386      388.33292      268.5304      -1026.7281    
    244000   293.25677     -629.40706      382.73947      276.9439      -697.52809    
    245000   293.76639     -635.23843      390.58481      279.8678       400.83685    
    246000   300.92734     -646.68722      366.36863      256.98875      858.97102    
    247000   293.57036     -630.02105      376.15141      270.30177     -24.885886    
    248000   309.50686     -650.26327      350.98668      253.34953      149.85561    
    249000   313.52737     -640.94582      344.64539      263.50433     -569.40673    
    250000   297.22909     -630.79072      374.86281      274.77617      88.956869    
    251000   295.25793     -634.63699      363.20469      255.75228     -833.52211    
    252000   301.85808     -642.67357      366.3          262.5956      -5.9640748    
    253000   294.65772     -640.37334      389.05192      274.79147     -197.18446    
    254000   300.81885     -634.9404       376.23412      278.40734     -20.583822    
    255000   306.60943     -632.48798      357.76756      272.73232     -110.36385    
    256000   307.701       -644.03154      363.45875      268.82895     -1436.7614    
    257000   299.82288     -647.18734      379.61403      267.76201     -1841.827     
    258000   305.50387     -645.27502      370.08568      270.28941     -898.76154    
    259000   307.52334     -642.36789      361.71434      268.43098      196.20871    
    260000   302.66938     -641.68988      369.55303      268.28089      1590.8413    
    261000   300.95454     -647.5426       374.07563      263.88893     -70.701632    
    262000   306.70463     -641.63992      367.44091      273.4237       4.3034558    
    263000   301.80169     -639.47311      384.11857      283.51396     -781.8909     
    264000   309.61504     -643.86337      365.6553       274.6112      -314.6889     
    265000   296.73911     -638.25384      385.71987      277.29526     -616.63804    
    266000   298.31049     -647.78975      380.55228      265.39747      752.6967     
    267000   295.73637     -644.29637      386.6675       270.40996      1174.3589    
    268000   304.75626     -635.91811      372.76074      280.98652      31.761709    
    269000   298.62249     -647.0658       374.65755      260.78376     -1042.0443    
    270000   291.60879     -635.76932      369.60691      254.50661     -616.66246    
    271000   282.65625     -641.12456      396.32812      259.88777      236.05775    
    272000   297.5928      -646.97455      389.98169      274.36063      240.4929     
    273000   295.60241     -639.43155      390.2936       278.66169      103.03643    
    274000   301.88046     -632.93481      373.13098      279.2053      -620.47406    
    275000   306.2679      -639.33034      369.68388      277.19647      9.878426     
    276000   302.78206     -641.90532      382.62892      281.34254      110.73007    
    277000   298.42784     -641.09957      376.34204      268.08693     -35.041586    
    278000   298.58831     -631.05378      371.52357      273.60078     -1268.2532    
    279000   297.93323     -635.57797      390.61343      286.99679     -180.61309    
    280000   298.49537     -643.92121      385.24242      274.28626     -260.39489    
    281000   304.74659     -636.28329      358.54063      266.38397      56.153956    
    282000   293.77044     -648.04793      389.66999      266.1507      -299.19894    
    283000   290.45805     -638.91291      389.89644      269.59789      509.79385    
    284000   299.99687     -629.92298      361.46639      267.18939      822.67147    
    285000   291.75484     -651.87702      392.00311      261.05588     -615.53696    
    286000   296.58758     -662.30325      391.74906      259.00449     -1025.1807    
    287000   296.87183     -640.31599      363.86234      253.61255      1111.4137    
    288000   294.85462     -634.55032      373.98616      265.9003       979.11838    
    289000   292.62581     -647.68608      389.59183      264.39066      204.03939    
    290000   297.9783      -640.72887      370.44673      261.75968      551.40542    
    290169   299.06289     -648.52227      378.34258      263.79865     -864.09524    
Loop time of 22.8491 on 1 procs for 100000 steps with 600 atoms

Performance: 378.133 ns/day, 0.063 hours/ns, 4376.541 timesteps/s, 2.626 Matom-step/s
102.0% CPU use with 1 MPI tasks x 1 OpenMP threads

MPI task timing breakdown:
Section |  min time  |  avg time  |  max time  |%varavg| %total
---------------------------------------------------------------
Pair    | 18.427     | 18.427     | 18.427     |   0.0 | 80.65
Bond    | 2.043      | 2.043      | 2.043      |   0.0 |  8.94
Neigh   | 1.3784     | 1.3784     | 1.3784     |   0.0 |  6.03
Comm    | 0.58426    | 0.58426    | 0.58426    |   0.0 |  2.56
Output  | 0.0039791  | 0.0039791  | 0.0039791  |   0.0 |  0.02
Modify  | 0.28149    | 0.28149    | 0.28149    |   0.0 |  1.23
Other   |            | 0.1307     |            |       |  0.57

Nlocal:            600 ave         600 max         600 min
Histogram: 1 0 0 0 0 0 0 0 0 0
Nghost:           3542 ave        3542 max        3542 min
Histogram: 1 0 0 0 0 0 0 0 0 0
Neighs:          69429 ave       69429 max       69429 min
Histogram: 1 0 0 0 0 0 0 0 0 0

Total # of neighbors = 69429
Ave neighs/atom = 115.715
Ave special neighs/atom = 4
Neighbor list builds = 1255
Dangerous builds = 0
Generated 1 of 1 mixed pair_coeff terms from geometric mixing rule
Setting up Verlet run ...
  Unit style    : real
  Current step  : 290169
  Time step     : 1
Per MPI rank memory allocation (min/avg/max) = 7.197 | 7.197 | 7.197 Mbytes
   Step          Temp          E_pair         E_mol          TotEng         Press          Volume    
    290169   299.06289     -648.52227      378.34258      263.79865     -864.09524      23419.673    
    291000   297.77954     -632.56017      382.70193      281.82869     -811.2052       23987.896    
    292000   302.88829     -617.6541       368.17698      291.3315      -164.11865      24518.586    
    293000   299.10142     -616.44883      379.95181      297.55013     -647.68448      25028.303    
    294000   300.69828     -598.6547       369.5739       307.81755     -762.68752      25643.818    
    295000   310.04345     -595.13061      364.22526      322.67885     -329.16602      26192.914    
    296000   295.27374     -579.88692      388.08602      335.41189     -257.63376      26822.725    
    297000   302.90078     -565.95077      368.55918      343.43933     -258.60852      27338.948    
    298000   301.43492     -562.19069      367.355        343.37792     -83.76268       27887.696    
    299000   312.50635     -568.93319      352.62478      341.67331     -368.92557      28570.127    
    300000   290.46111     -560.35558      393.0365       351.30076     -442.71109      29317.292    
    301000   302.18343     -550.84907      363.34089      352.0419      -107.68617      29968.999    
    302000   299.48511     -535.22134      375.50258      375.01345     -942.03173      30643.098    
    303000   300.87958     -539.6491       382.91011      380.48308     -88.471283      31463.956    
    304000   309.81082     -525.84042      357.05362      384.38203     -222.41097      32246.246    
    305000   300.83246     -534.00457      370.96593      374.09929     -191.40877      33031.635    
    306000   289.80998     -521.28517      399.35779      395.52984     -354.49255      33867.765    
    307000   304.88001     -528.37235      369.27606      385.26857     -328.36209      34748.13     
    308000   294.09744     -513.32886      388.8575       400.64115     -43.733919      35697.97     
    309000   308.92604     -518.16698      376.54678      409.96887     -603.33519      36617.512    
    310000   298.50457     -507.17515      383.2699       409.07621     -88.366972      37557.593    
    311000   297.38932     -504.47056      371.21615      397.73578     -25.492877      38548.402    
    312000   299.90802     -517.22451      381.97515      400.23798     -86.099554      39546.416    
    313000   296.10852     -502.52355      383.73684      409.91659     -186.03849      40578.184    
    314000   302.41958     -512.10997      373.52063      401.3824       69.53269       41685.721    
    315000   294.39531     -514.36451      388.8222       400.10205     -134.84886      42798.617    
    316000   300.65784     -516.95594      380.20415      400.07436     -61.062645      43905.203    
    317000   304.26599     -504.46272      379.48894      418.29474     -334.83091      44996.672    
    318000   300.24082     -507.59763      385.91446      414.39839     -45.45448       46213.581    
    319000   309.88491     -494.30587      372.49063      431.48589     -114.34357      47406.151    
    320000   299.26131     -486.24324      387.17545      435.26485     -26.972261      48470.693    
    321000   309.14581     -499.14971      363.80722      416.63897     -240.63642      49707.029    
    322000   297.72242     -504.23584      388.72217      416.07126      16.209594      50908.415    
    323000   302.9593      -508.75381      371.76336      403.94495      121.92544      52199.856    
    324000   295.72929     -496.37014      376.57179      408.22784     -30.44171       53495.473    
    325000   290.19419     -495.0092       385.81711      408.95115     -256.11103      54774.209    
    326000   290.375       -478.55869      387.24143      427.14883     -138.60997      56007.003    
    327000   302.68594     -477.06589      376.1977       439.57913     -330.51807      57356.361    
    328000   298.52252     -473.36639      378.07811      437.72524     -105.35938      58535.765    
    329000   311.0651      -492.5111       362.11154      425.00879     -156.8075       59896.637    
    330000   288.95362     -487.09681      383.53737      412.36874     -296.48075      61235.961    
    331000   301.46717     -501.18979      380.5542       417.63561      112.68482      62585.396    
    332000   300.32349     -488.46234      391.46796      439.23479      72.69443       63910.976    
    333000   299.41377     -480.02678      377.25739      431.83546     -87.554215      65158.383    
    334000   299.84748     -475.29327      366.73526      426.82124     -0.34325076     66486.321    
    335000   303.33394     -472.23109      369.09413      438.46738      96.505514      67825.642    
[...]
  39219000   299.98168     -1046.3132      3.2260105     -507.46835     -0.49577012     17415.382    
  39220000   300.03217     -1046.3498      3.1665171     -507.47428     -0.94891599     17415.047    
  39221000   299.98857     -1046.309       3.2238756     -507.45397      0.58716155     17415.225    
  39222000   300.00628     -1046.3113      3.1878034     -507.46069      0.42555875     17415.265    
  39223000   300.01372     -1046.2732      3.1360283     -507.46114      1.6275261      17414.899    
  39224000   300.03155     -1046.2947      3.1472331     -507.43961      0.70410768     17415.327    
  39225000   299.99165     -1046.2963      3.2026482     -507.45698      1.1164152      17415.171    
  39226000   300.00738     -1046.2923      3.1517074     -507.47581      0.66814155     17414.909    
  39227000   300.00794     -1046.3329      3.2131367     -507.45406      1.748804       17415.023    
  39228000   300.01351     -1046.3371      3.2003746     -507.46106     -0.44194178     17415.134    
  39229000   300.01028     -1046.3073      3.1737074     -507.4637      -0.34690018     17415.326    
  39230000   299.98916     -1046.2828      3.1925794     -507.458        2.3446364      17414.62     
  39231000   300.02114     -1046.2791      3.1300299     -507.45977      1.347863       17415.242    
  39232000   299.98081     -1046.3273      3.2426345     -507.46741     -0.37365832     17415.271    
  39233000   299.99098     -1046.314       3.2269979     -507.45149      2.3451411      17415.143    
  39234000   299.94715     -1046.2639      3.2289864     -507.47767      1.0667589      17414.927    
  39235000   300.01348     -1046.2472      3.1037692     -507.46776      4.0470786      17415.222    
  39236000   299.97122     -1046.3236      3.2760713     -507.44737     -0.02780719     17414.97     
  39237000   299.98957     -1046.2682      3.1840297     -507.45119      1.551474       17415.253    
  39238000   299.98909     -1046.2882      3.2033979     -507.4527      -3.5062666      17415.196    
  39239000   300.00868     -1046.2647      3.1427948     -507.45486      1.4955458      17415.255    
  39240000   299.9819      -1046.2937      3.2251682     -507.44927      1.4901806      17414.981    
  39241000   299.97702     -1046.2705      3.2151706     -507.44477      4.0008307      17415.211    
  39242000   300.00188     -1046.3327      3.2022504     -507.47551      2.42207        17415.064    
  39243000   299.98371     -1046.289       3.2080563     -507.45846      1.303325       17415.168    
  39244000   299.96432     -1046.292       3.2526478     -507.45153      0.75222311     17415.086    
  39245000   299.97532     -1046.2767      3.2229168     -507.44629      1.7389156      17414.897    
  39246000   300.00992     -1046.3355      3.2126897     -507.45356     -1.9392633      17415.17     
  39247000   300.00309     -1046.2565      3.1472637     -507.4522       1.695385       17415        
  39248000   299.99418     -1046.2428      3.1459831     -507.45568      3.6111555      17415.094    
  39249000   300.02441     -1046.3333      3.1701815     -507.46802      2.7946373      17415.272    
  39250000   299.97963     -1046.3281      3.2519363     -507.46098     -2.5198027      17415.134    
  39251000   299.97599     -1046.2654      3.1987451     -507.45792      1.1024083      17414.98     
  39252000   299.97952     -1046.3434      3.2698733     -507.4585      -4.0904268      17415.011    
  39253000   299.99127     -1046.2877      3.197113      -507.45463      2.2398445      17415.291    
  39254000   300.0012      -1046.2841      3.1775916     -507.45284      1.244876       17415.019    
  39255000   299.98312     -1046.3008      3.2250146     -507.45438      3.618235       17415.302    
  39256000   299.9832      -1046.2885      3.2181739     -507.44875      2.4950482      17415.095    
  39257000   299.95939     -1046.3063      3.2685861     -507.45867     -1.9239723      17415.307    
  39258000   299.99909     -1046.3176      3.1990798     -507.46862     -1.7964865      17414.951    
  39259000   299.95755     -1046.2786      3.2331564     -507.4697      -0.27071634     17415.023    
  39260000   300.02926     -1046.2408      3.0806925     -507.45631      3.0015868      17415.201    
  39261000   300.03817     -1046.3041      3.1282019     -507.45623      0.60650638     17415.189    
  39262000   300.05239     -1046.3235      3.1169077     -507.46151      2.7913264      17414.904    
  39263000   300.01106     -1046.2487      3.1159118     -507.46149      2.5908562      17415.089    
  39264000   300.05579     -1046.3128      3.0768595     -507.48477     -0.79231404     17415.087    
  39265000   299.99766     -1046.2579      3.1648255     -507.44566     -0.94082249     17415.276    
  39266000   299.96851     -1046.2909      3.2184192     -507.47713      1.4187914      17415.02     
  39267000   299.99331     -1046.3233      3.2182233     -507.46541      3.2693086      17415.271    
  39268000   299.98955     -1046.2987      3.2060672     -507.45976      2.0157942      17415.223    
  39269000   299.98733     -1046.2939      3.2158572     -507.44911     -0.93025117     17415.415    
  39270000   299.99895     -1046.3002      3.1903439     -507.46013     -0.95055077     17414.647    
  39271000   300.05164     -1046.2572      3.0540292     -507.45944      2.4463184      17415.262    
  39272000   300.01082     -1046.2823      3.1479286     -507.46352      0.16961054     17415.244    
  39273000   300.01179     -1046.2989      3.1482289     -507.47802      0.030446418    17414.984    
  39274000   300.02678     -1046.3037      3.1535744     -507.45075      2.4468129      17415.097    
  39275000   299.99537     -1046.3108      3.2008544     -507.46662     -0.18558757     17415.362    
  39276000   299.96368     -1046.2975      3.2533326     -507.45747      2.2245096      17414.862    
  39277000   299.99815     -1046.295       3.1794744     -507.4673      -0.53396117     17415.113    
  39278000   299.96992     -1046.3286      3.2722896     -507.45845     -1.2743169      17415.06     
  39279000   299.97058     -1046.2635      3.2141801     -507.45024      0.77691566     17415.749    
  39280000   300.01431     -1046.2964      3.1615351     -507.45778      2.1742706      17414.97     
  39281000   299.99387     -1046.2889      3.1553119     -507.49294      0.9883056      17415.119    
  39282000   299.98369     -1046.2994      3.2377917     -507.43917      1.8554988      17415.166    
  39283000   300.03307     -1046.3196      3.1159016     -507.49309      1.770003       17414.948    
  39284000   299.98427     -1046.3202      3.2308097     -507.46593      1.9452737      17414.976    
  39285000   300.02194     -1046.3163      3.1609626     -507.46456     -1.5873581      17415.028    
  39286000   300.00992     -1046.2887      3.1671569     -507.45227      0.8976364      17415.217    
  39287000   300.01217     -1046.2919      3.1522414     -507.46636      0.5988089      17415.292    
  39288000   300.0013      -1046.3018      3.1726435     -507.47524      2.2499202      17415.111    
  39289000   300.01418     -1046.2621      3.1174342     -507.46775      5.2747739      17414.895    
  39290000   299.98827     -1046.3066      3.2310611     -507.44496     -0.90122154     17415.389    
  39291000   300.0149      -1046.3547      3.2164938     -507.46008     -2.1345943      17415.255    
  39292000   300.02894     -1046.2448      3.0920683     -507.4495       4.1213393      17415.03     
  39293000   300.02556     -1046.272       3.1067969     -507.46797      2.6387265      17415.153    
  39294000   300.03047     -1046.3026      3.1396847     -507.45695      0.67470833     17415.203    
  39295000   300.03052     -1046.2887      3.1141205     -507.46853      1.8763525      17414.956    
  39296000   300.01912     -1046.3199      3.1853031     -507.44892      1.9019909      17415.134    
  39297000   299.99315     -1046.2854      3.1872666     -507.45877     -2.2106782      17414.934    
  39298000   300.00502     -1046.2634      3.146676      -507.45615      1.5613268      17415.257    
  39299000   299.9774      -1046.2445      3.1911074     -507.44217      2.1657706      17415.255    
  39300000   300.00574     -1046.3324      3.1919335     -507.47868      1.5508701      17415.309    
  39301000   299.98267     -1046.3287      3.2417261     -507.4663       3.7618587      17415.042    
  39302000   299.98342     -1046.2773      3.2014518     -507.45387      2.9407683      17414.917    
  39303000   299.98998     -1046.3361      3.237444      -507.46503     -2.1094809      17414.962    
  39304000   299.98421     -1046.3152      3.2374403     -507.45442     -0.33078748     17415.313    
  39305000   299.97052     -1046.2548      3.1951982     -507.46068     -0.76618006     17415.225    
  39306000   300.00171     -1046.3263      3.2235631     -507.44807      0.82988996     17414.884    
  39307000   300.02495     -1046.2128      3.0569325     -507.45972      2.916027       17415.177    
  39308000   300.03033     -1046.3227      3.1485443     -507.46843      2.2412545      17415.259    
  39309000   300.02581     -1046.2775      3.1352311     -507.44458      3.1361795      17415.127    
  39310000   300.02426     -1046.3043      3.1686032     -507.44082      0.0055521738   17415.377    
  39311000   299.98857     -1046.2698      3.1917235     -507.44688      2.7095539      17414.867    
  39312000   300.0009      -1046.269       3.1689884     -507.44683      0.62455987     17415.085    
  39313000   299.98584     -1046.2622      3.1746626     -507.46126     -1.2193512      17415.034    
  39314000   299.99968     -1046.2994      3.2049553     -507.44343      3.5929803      17415.321    
  39315000   300.03261     -1046.2852      3.1199427     -507.45551      1.8815973      17415.07     
  39316000   300.01598     -1046.2838      3.1487426     -507.45497      1.122585       17415.103    
  39317000   299.99449     -1046.3069      3.1968455     -507.46828      0.15239801     17415.014    
  39318000   300.02873     -1046.2725      3.1307566     -507.43886     -0.89464198     17415.284    
  39319000   300.01778     -1046.2572      3.1211649     -507.45275      4.4407127      17415.091    
  39320000   299.99268     -1046.3189      3.2189452     -507.46151     -0.64418872     17414.993    
  39321000   300.01591     -1046.3329      3.1695708     -507.48333      1.7750779      17414.868    
  39322000   299.99918     -1046.3628      3.2444216     -507.46826     -1.4479186      17415.339    
  39323000   299.9804      -1046.2976      3.2082666     -507.47272      3.9843352      17415.075    
  39324000   299.9981      -1046.3051      3.2000355     -507.45685      2.9367613      17415.077    
  39325000   299.99469     -1046.23        3.1478894     -507.44002     -0.73139982     17415.308    
  39326000   300.03268     -1046.261       3.1002819     -507.45079      0.47703909     17415.075    
  39327000   300.02031     -1046.2995      3.1379195     -507.47375     -0.59859068     17415.206    
  39328000   300.02055     -1046.275       3.1227731     -507.46397      2.5399321      17415        
  39329000   299.99115     -1046.2526      3.1629777     -507.45386      0.59219963     17414.97     
  39330000   299.99889     -1046.2813      3.1646894     -507.46702      3.7768056      17415.238    
  39331000   299.97334     -1046.323       3.2685089     -507.45058     -2.6848267      17415.001    
  39332000   300.00124     -1046.2292      3.0995366     -507.47587      3.6478479      17415.366    
  39333000   300.01925     -1046.3189      3.1820443     -507.4509       0.27340665     17414.98     
  39334000   300.02023     -1046.2087      3.0801714     -507.44084      2.0501975      17415.284    
  39335000   300.04677     -1046.2657      3.0625765     -507.46803      1.0928475      17415.083    
  39336000   299.9954      -1046.3257      3.2264843     -507.45583      1.5137652      17414.957    
  39337000   300.00892     -1046.3442      3.2164022     -507.46033      0.039812066    17415.354    
  39338000   299.98566     -1046.3524      3.2472281     -507.4792       0.26570496     17414.947    
  39339000   300.01381     -1046.3182      3.1943862     -507.44763     -0.89835554     17415.101    
  39340000   299.98051     -1046.343       3.2664305     -507.45979     -2.5662115      17415.358    
  39341000   300.0377      -1046.214       3.0381144     -507.457        4.1638493      17415.039    
  39342000   300.02625     -1046.3198      3.1547566     -507.46661      1.6702767      17415.298    
  39343000   300.02141     -1046.3391      3.1600133     -507.48934      2.766766       17414.912    
  39344000   299.9841      -1046.2528      3.1862391     -507.44341      1.3908809      17414.935    
  39345000   300.01505     -1046.3463      3.1911772     -507.47672     -2.8752835      17415.425    
  39346000   300.00298     -1046.2316      3.1192155     -507.45547      1.6114289      17415.253    
  39347000   299.98576     -1046.2696      3.1856245     -507.4578      -0.038187209    17414.979    
  39348000   299.98192     -1046.3272      3.237933      -507.47001      3.0118092      17415.003    
  39349000   300.02997     -1046.3002      3.1278051     -507.46735     -0.50204377     17415.2      
  39350000   299.98693     -1046.3169      3.2216407     -507.46702      0.94019431     17415.111    
  39351000   300.01492     -1046.2578      3.1299886     -507.44959      1.0994019      17415.145    
  39352000   300.04656     -1046.2874      3.1032682     -507.44941      2.7566298      17415.33     
  39353000   300.05988     -1046.2666      3.0462308     -507.46192      2.2861604      17414.971    
  39354000   300.01122     -1046.2964      3.1625514     -507.46229     -0.08932258     17415.159    
  39355000   300.04046     -1046.2423      3.051914      -507.4666       3.2285411      17415.179    
  39356000   300.01699     -1046.3461      3.2034607     -507.4607       0.88515644     17414.96     
  39357000   299.99779     -1046.2626      3.1671349     -507.44783      1.2533098      17415.307    
  39358000   300.00249     -1046.2672      3.1633747     -507.44777     -1.0522684      17415.359    
  39359000   300.0161      -1046.2957      3.1311381     -507.48427      3.8106171      17414.92     
  39360000   300.01158     -1046.2978      3.1623347     -507.46321      2.8947049      17415.496    
  39361000   299.99763     -1046.3069      3.1643757     -507.4952       3.0053479      17414.563    
  39362000   300.01307     -1046.3302      3.1996851     -507.45556     -2.3602251      17415.101    
  39363000   299.98603     -1046.3021      3.1934178     -507.48204      0.84872614     17415.222    
  39364000   300.01113     -1046.2742      3.1330731     -507.46967     -0.50338171     17415.132    
  39365000   299.96543     -1046.3147      3.2749896     -507.44984     -0.16947033     17415.299    
  39366000   300.0028      -1046.2568      3.1585613     -507.44172     -1.0426305      17415.131    
  39367000   299.97124     -1046.3147      3.2332421     -507.4812       0.61857687     17415.116    
  39368000   300.00765     -1046.2774      3.1393707     -507.47282      1.86225        17414.956    
  39369000   299.97175     -1046.2759      3.2120693     -507.46273      5.2343852      17415.171    
  39370000   300.00625     -1046.2813      3.1778806     -507.44073      2.1802807      17415.407    
  39371000   300.00591     -1046.3203      3.1856532     -507.47255     -1.5831688      17414.862    
  39372000   300.03625     -1046.3159      3.140166      -507.45941      1.2148762      17415.559    
  39373000   299.99878     -1046.3147      3.2021321     -507.46322     -1.3093652      17414.753    
  39374000   300.02717     -1046.2454      3.0760956     -507.46919      3.5208842      17415.083    
  39375000   300.01632     -1046.2864      3.1574948     -507.44817      0.98831633     17415.164    
  39376000   299.9879      -1046.294       3.2043377     -507.4597       4.2705018      17415.228    
  39377000   299.95135     -1046.3587      3.3219519     -507.472       -0.45207065     17415.034    
  39378000   300.00847     -1046.3642      3.2253046     -507.47218     -1.5894186      17415.065    
  39379000   300.00303     -1046.2628      3.136857      -507.46893      1.7001536      17415.051    
  39380000   299.98924     -1046.2505      3.1707748     -507.44739     -0.61108936     17415.325    
  39381000   300.02851     -1046.3139      3.1358132     -507.47565      4.0909329      17414.96     
  39382000   300.05747     -1046.2783      3.0667245     -507.45739      2.5281204      17415.305    
  39383000   299.96805     -1046.326       3.2579725     -507.47354     -2.1219808      17415.034    
  39384000   299.98596     -1046.372       3.2829149     -507.46259     -0.89423789     17415.137    
  39385000   299.99302     -1046.3063      3.2208939     -507.44632      0.90247064     17415.168    
  39386000   299.98961     -1046.2477      3.1489051     -507.4658       2.388286       17414.956    
  39387000   299.99963     -1046.2999      3.1692487     -507.47969      0.44454093     17415.239    
  39388000   300.02672     -1046.2787      3.1355901     -507.44389      0.17569506     17415.228    
  39389000   300.03578     -1046.3086      3.1318087     -507.4614       2.4995872      17415.23     
  39390000   300.00996     -1046.3344      3.1892974     -507.47578      2.6221334      17414.663    
  39391000   300.01417     -1046.2537      3.0987666     -507.47812     -1.7318443      17415.244    
  39392000   299.98422     -1046.2837      3.1979406     -507.4624       0.33096962     17415.569    
  39393000   300.02086     -1046.3443      3.1689033     -507.48662      1.3889089      17414.879    
  39394000   299.97612     -1046.3127      3.2333671     -507.47039      1.4303111      17415.027    
  39395000   299.98794     -1046.3016      3.2286755     -507.44294     -0.95665603     17415.249    
  39396000   299.99043     -1046.2778      3.1613442     -507.48197     -1.9680709      17415.149    
  39397000   299.99878     -1046.3285      3.2221048     -507.45697      3.6429863      17415.263    
  39398000   300.01943     -1046.2601      3.1174875     -507.45631      4.664428       17415.044    
  39399000   300.02228     -1046.2516      3.0930161     -507.46723      3.0541919      17414.805    
  39400000   300.01779     -1046.3194      3.1803022     -507.45578     -2.0941236      17415.652    
  39400169   299.99072     -1046.3212      3.2226577     -507.46356     -1.0808707      17415.545    
Loop time of 7191.72 on 1 procs for 20000000 steps with 600 atoms

Performance: 240.276 ns/day, 0.100 hours/ns, 2780.975 timesteps/s, 1.669 Matom-step/s
99.9% CPU use with 1 MPI tasks x 1 OpenMP threads

MPI task timing breakdown:
Section |  min time  |  avg time  |  max time  |%varavg| %total
---------------------------------------------------------------
Pair    | 6253.8     | 6253.8     | 6253.8     |   0.0 | 86.96
Bond    | 428.47     | 428.47     | 428.47     |   0.0 |  5.96
Neigh   | 258        | 258        | 258        |   0.0 |  3.59
Comm    | 137.96     | 137.96     | 137.96     |   0.0 |  1.92
Output  | 0.55439    | 0.55439    | 0.55439    |   0.0 |  0.01
Modify  | 87.316     | 87.316     | 87.316     |   0.0 |  1.21
Other   |            | 25.62      |            |       |  0.36

Nlocal:            600 ave         600 max         600 min
Histogram: 1 0 0 0 0 0 0 0 0 0
Nghost:           4204 ave        4204 max        4204 min
Histogram: 1 0 0 0 0 0 0 0 0 0
Neighs:          94404 ave       94404 max       94404 min
Histogram: 1 0 0 0 0 0 0 0 0 0

Total # of neighbors = 94404
Ave neighs/atom = 157.34
Ave special neighs/atom = 4
Neighbor list builds = 148376
Dangerous builds = 0
System init for write_restart ...
Generated 1 of 1 mixed pair_coeff terms from geometric mixing rule
