ITEM: TIMESTEP
0
ITEM: NUMBER OF ATOMS
8
ITEM: BOX BOUNDS xy xz yz pp pp pp
0.0000000000000000e+00 5.1592000000000002e+00 0.0000000000000000e+00
0.0000000000000000e+00 5.1592000000000002e+00 0.0000000000000000e+00
0.0000000000000000e+00 5.1592000000000002e+00 0.0000000000000000e+00
ITEM: ATOMS id xu yu zu
1    0.000000000000000    0.000000000000000    0.000000000000000
2    0.000000000000000    2.580000000000000    2.580000000000000
3    1.290000000000000    1.290000000000000    1.290000000000000
4    1.290000000000000    3.869000000000000    3.869000000000000
5    2.580000000000000    0.000000000000000    2.580000000000000
6    2.580000000000000    2.580000000000000    0.000000000000000
7    3.869000000000000    1.290000000000000    3.869000000000000
8    3.869000000000000    3.869000000000000    1.290000000000000
