LAMMPS Description # atomic

8 atoms

1 atom types

0.0000 5.1592 xlo xhi
0.0000 5.1592 ylo yhi
0.0000 5.1592 zlo zhi
0.0000 0.0000 0.0000 xy xz yz

Masses

1 28.086

Atoms

1 1 0.000 0.000 0.000
2 1 0.000 2.580 2.580
3 1 1.290 1.290 1.290
4 1 1.290 3.869 3.869
5 1 2.580 0.000 2.580
6 1 2.580 2.580 0.000
7 1 3.869 1.290 3.869
8 1 3.869 3.869 1.290

