LAMMPS (7 Feb 2024 - Development - patch_7Feb2024-18-gc6a8f1fe58)
units metal
atom_style atomic
boundary p p p
read_data crystal_builder.data
Reading data file ...
  triclinic box = (0 0 0) to (5.1592 5.1592 5.1592) with tilt (0 0 0)
  1 by 1 by 1 MPI processor grid
  reading atoms ...
  8 atoms
  read_data CPU = 0.001 seconds

pair_style sw
pair_coeff * * /Users/tzhang/git/nemd/submodule/alamode/alamode/example/Si_LAMMPS/Si.sw Si
Reading sw potential file /Users/tzhang/git/nemd/submodule/alamode/alamode/example/Si_LAMMPS/Si.sw with DATE: 2007-06-11
dump 1 all custom 1 crystal_builder.dump id xu yu zu
dump_modify 1 format float '%20.15f'
run 0
WARNING: No fixes with time integration, atoms won't move (src/verlet.cpp:60)
Neighbor list info ...
  update: every = 1 steps, delay = 0 steps, check = yes
  max neighbors/atom: 2000, page size: 100000
  master list distance cutoff = 5.77118
  ghost atom cutoff = 5.77118
  binsize = 2.88559, bins = 2 2 2
  1 neighbor lists, perpetual/occasional/extra = 1 0 0
  (1) pair sw, perpetual
      attributes: full, newton on
      pair build: full/bin/atomonly
      stencil: full/bin/3d
      bin: standard
Per MPI rank memory allocation (min/avg/max) = 2.958 | 2.958 | 2.958 Mbytes
   Step          Temp          E_pair         E_mol          TotEng         Press     
         0   0             -33.430536      0             -33.430536      195975.47    
Loop time of 1.235e-06 on 1 procs for 0 steps with 8 atoms

81.0% CPU use with 1 MPI tasks x no OpenMP threads

MPI task timing breakdown:
Section |  min time  |  avg time  |  max time  |%varavg| %total
---------------------------------------------------------------
Pair    | 0          | 0          | 0          |   0.0 |  0.00
Neigh   | 0          | 0          | 0          |   0.0 |  0.00
Comm    | 0          | 0          | 0          |   0.0 |  0.00
Output  | 0          | 0          | 0          |   0.0 |  0.00
Modify  | 0          | 0          | 0          |   0.0 |  0.00
Other   |            | 1.235e-06  |            |       |100.00

Nlocal:              8 ave           8 max           8 min
Histogram: 1 0 0 0 0 0 0 0 0 0
Nghost:            272 ave         272 max         272 min
Histogram: 1 0 0 0 0 0 0 0 0 0
Neighs:              0 ave           0 max           0 min
Histogram: 1 0 0 0 0 0 0 0 0 0
FullNghs:          368 ave         368 max         368 min
Histogram: 1 0 0 0 0 0 0 0 0 0

Total # of neighbors = 368
Ave neighs/atom = 46
Neighbor list builds = 0
Dangerous builds = 0
Total wall time: 0:00:00
