LAMMPS (19 Nov 2024)
  using 1 OpenMP thread(s) per MPI task
units real
atom_style full
bond_style harmonic
angle_style harmonic
dihedral_style opls
improper_style cvff
special_bonds lj/coul 0 0 0.5
pair_style lj/cut 11.0
pair_modify mix geometric
read_data amorp_bldr.data
Reading data file ...
  orthogonal box = (0 0 0) to (159.3309 159.3309 159.3309)
  1 by 1 by 1 MPI processor grid
  reading atoms ...
  100 atoms
Finding 1-2 1-3 1-4 neighbors ...
  special bond factors lj:    0        0        0.5     
  special bond factors coul:  0        0        0.5     
     0 = max # of 1-2 neighbors
     0 = max # of 1-3 neighbors
     0 = max # of 1-4 neighbors
     1 = max # of special neighbors
  special bonds CPU = 0.000 seconds
  read_data CPU = 0.002 seconds

dump 1 all custom 1000 amorp_bldr.custom.gz id xu yu zu
dump_modify 1 sort id
min_style fire
minimize 1.0e-6 1.0e-8 1000000 10000000
Generated 0 of 0 mixed pair_coeff terms from geometric mixing rule
Neighbor list info ...
  update: every = 1 steps, delay = 0 steps, check = yes
  max neighbors/atom: 2000, page size: 100000
  master list distance cutoff = 13
  ghost atom cutoff = 13
  binsize = 6.5, bins = 25 25 25
  1 neighbor lists, perpetual/occasional/extra = 1 0 0
  (1) pair lj/cut, perpetual
      attributes: half, newton on
      pair build: half/bin/newton
      stencil: half/bin/3d
      bin: standard
  Parameters for fire:
    dmax  delaystep dtgrow dtshrink alpha0 alphashrink tmax tmin   integrator   halfstepback   abcfire  
     0.1     20      1.1     0.5     0.25     0.99      10  0.02 eulerimplicit      yes          no     
Per MPI rank memory allocation (min/avg/max) = 6.102 | 6.102 | 6.102 Mbytes
   Step          Temp          E_pair         E_mol          TotEng         Press     
         0   0             -0.073928095    0             -0.073928095   -0.0023892174 
      2240   8.3031336e-06 -1.1797123      0             -1.1797098     -0.00020561851
Loop time of 0.00706207 on 1 procs for 2240 steps with 100 atoms

99.0% CPU use with 1 MPI tasks x 1 OpenMP threads

Minimization stats:
  Stopping criterion = energy tolerance
  Energy initial, next-to-last, final = 
    -0.0739280950372766   -1.1797119752022  -1.17971227227935
  Force two-norm initial, final = 0.075389035 0.0074964279
  Force max component initial, final = 0.049471126 0.004542194
  Final line search alpha, max atom move = 0 0
  Iterations, force evaluations = 2240 2245

MPI task timing breakdown:
Section |  min time  |  avg time  |  max time  |%varavg| %total
---------------------------------------------------------------
Pair    | 0.00095951 | 0.00095951 | 0.00095951 |   0.0 | 13.59
Bond    | 0.00022374 | 0.00022374 | 0.00022374 |   0.0 |  3.17
Neigh   | 0.00010188 | 0.00010188 | 0.00010188 |   0.0 |  1.44
Comm    | 0.00083514 | 0.00083514 | 0.00083514 |   0.0 | 11.83
Output  | 0.00017439 | 0.00017439 | 0.00017439 |   0.0 |  2.47
Modify  | 0          | 0          | 0          |   0.0 |  0.00
Other   |            | 0.004767   |            |       | 67.51

Nlocal:            100 ave         100 max         100 min
Histogram: 1 0 0 0 0 0 0 0 0 0
Nghost:             49 ave          49 max          49 min
Histogram: 1 0 0 0 0 0 0 0 0 0
Neighs:             14 ave          14 max          14 min
Histogram: 1 0 0 0 0 0 0 0 0 0

Total # of neighbors = 14
Ave neighs/atom = 0.14
Ave special neighs/atom = 0
Neighbor list builds = 5
Dangerous builds = 0

timestep 1.0
thermo_modify flush yes
thermo 1000
velocity all create 10 787576466
fix 2a all temp/berendsen 10 10 100
fix 2b all nve
run 100
Generated 0 of 0 mixed pair_coeff terms from geometric mixing rule
Per MPI rank memory allocation (min/avg/max) = 7.36 | 7.36 | 7.36 Mbytes
   Step          Temp          E_pair         E_mol          TotEng         Press     
      2240   10            -1.1797123      0              1.7712897      0.033144852  
      2340   9.9812139     -1.1719785      0              1.7734797      0.029783265  
Loop time of 0.000250564 on 1 procs for 100 steps with 100 atoms

Performance: 34482.208 ns/day, 0.001 hours/ns, 399099.631 timesteps/s, 39.910 Matom-step/s
96.2% CPU use with 1 MPI tasks x 1 OpenMP threads

MPI task timing breakdown:
Section |  min time  |  avg time  |  max time  |%varavg| %total
---------------------------------------------------------------
Pair    | 3.6345e-05 | 3.6345e-05 | 3.6345e-05 |   0.0 | 14.51
Bond    | 7.368e-06  | 7.368e-06  | 7.368e-06  |   0.0 |  2.94
Neigh   | 0          | 0          | 0          |   0.0 |  0.00
Comm    | 3.3775e-05 | 3.3775e-05 | 3.3775e-05 |   0.0 | 13.48
Output  | 1.3898e-05 | 1.3898e-05 | 1.3898e-05 |   0.0 |  5.55
Modify  | 0.00011226 | 0.00011226 | 0.00011226 |   0.0 | 44.80
Other   |            | 4.692e-05  |            |       | 18.73

Nlocal:            100 ave         100 max         100 min
Histogram: 1 0 0 0 0 0 0 0 0 0
Nghost:             49 ave          49 max          49 min
Histogram: 1 0 0 0 0 0 0 0 0 0
Neighs:             14 ave          14 max          14 min
Histogram: 1 0 0 0 0 0 0 0 0 0

Total # of neighbors = 14
Ave neighs/atom = 0.14
Ave special neighs/atom = 0
Neighbor list builds = 0
Dangerous builds = 0
unfix 2b
unfix 2a

fix 3a all temp/berendsen 10 300 100
fix 3b all nve
run 5000
Generated 0 of 0 mixed pair_coeff terms from geometric mixing rule
Per MPI rank memory allocation (min/avg/max) = 7.36 | 7.36 | 7.36 Mbytes
   Step          Temp          E_pair         E_mol          TotEng         Press     
      2340   9.9812139     -1.1719785      0              1.7734797      0.029783265  
      3000   42.568006     -1.1551329      0              11.406694      0.13322247   
      4000   100.46216     -1.0333705      0              28.613033      0.32210391   
      5000   158.59734     -1.1076488      0              45.694457      0.52351435   
      6000   216.43429     -0.90951731     0              62.960285      0.70205748   
      7000   274.44797     -0.61689704     0              80.372752      0.90351477   
      7340   294.22042     -0.5606326      0              86.26387       0.97236906   
Loop time of 0.0129368 on 1 procs for 5000 steps with 100 atoms

Performance: 33393.059 ns/day, 0.001 hours/ns, 386493.744 timesteps/s, 38.649 Matom-step/s
99.4% CPU use with 1 MPI tasks x 1 OpenMP threads

MPI task timing breakdown:
Section |  min time  |  avg time  |  max time  |%varavg| %total
---------------------------------------------------------------
Pair    | 0.0018999  | 0.0018999  | 0.0018999  |   0.0 | 14.69
Bond    | 0.00035056 | 0.00035056 | 0.00035056 |   0.0 |  2.71
Neigh   | 0.00040914 | 0.00040914 | 0.00040914 |   0.0 |  3.16
Comm    | 0.0018535  | 0.0018535  | 0.0018535  |   0.0 | 14.33
Output  | 0.00049075 | 0.00049075 | 0.00049075 |   0.0 |  3.79
Modify  | 0.0056362  | 0.0056362  | 0.0056362  |   0.0 | 43.57
Other   |            | 0.002297   |            |       | 17.75

Nlocal:            100 ave         100 max         100 min
Histogram: 1 0 0 0 0 0 0 0 0 0
Nghost:             48 ave          48 max          48 min
Histogram: 1 0 0 0 0 0 0 0 0 0
Neighs:             14 ave          14 max          14 min
Histogram: 1 0 0 0 0 0 0 0 0 0

Total # of neighbors = 14
Ave neighs/atom = 0.14
Ave special neighs/atom = 0
Neighbor list builds = 21
Dangerous builds = 0
unfix 3b
unfix 3a

fix 4a all temp/berendsen 300 300 100
fix 4b all nve
run 5000
Generated 0 of 0 mixed pair_coeff terms from geometric mixing rule
Per MPI rank memory allocation (min/avg/max) = 7.36 | 7.36 | 7.36 Mbytes
   Step          Temp          E_pair         E_mol          TotEng         Press     
      7340   294.22042     -0.5606326      0              86.26387       0.97236906   
      8000   300.01124     -0.60204344     0              87.931333      0.9878538    
      9000   299.97585     -0.58808849     0              87.934844      0.99075364   
     10000   300.04958     -0.63895854     0              87.905732      0.98983806   
     11000   299.96702     -0.6381557      0              87.882171      0.99058336   
     12000   300.07474     -0.70675658     0              87.845359      0.98793979   
     12340   300.10099     -0.75838289     0              87.801477      0.99362999   
Loop time of 0.0135623 on 1 procs for 5000 steps with 100 atoms

Performance: 31852.976 ns/day, 0.001 hours/ns, 368668.705 timesteps/s, 36.867 Matom-step/s
99.0% CPU use with 1 MPI tasks x 1 OpenMP threads

MPI task timing breakdown:
Section |  min time  |  avg time  |  max time  |%varavg| %total
---------------------------------------------------------------
Pair    | 0.0020776  | 0.0020776  | 0.0020776  |   0.0 | 15.32
Bond    | 0.00035251 | 0.00035251 | 0.00035251 |   0.0 |  2.60
Neigh   | 0.00062368 | 0.00062368 | 0.00062368 |   0.0 |  4.60
Comm    | 0.0019357  | 0.0019357  | 0.0019357  |   0.0 | 14.27
Output  | 0.00051446 | 0.00051446 | 0.00051446 |   0.0 |  3.79
Modify  | 0.0056875  | 0.0056875  | 0.0056875  |   0.0 | 41.94
Other   |            | 0.002371   |            |       | 17.48

Nlocal:            100 ave         100 max         100 min
Histogram: 1 0 0 0 0 0 0 0 0 0
Nghost:             61 ave          61 max          61 min
Histogram: 1 0 0 0 0 0 0 0 0 0
Neighs:             16 ave          16 max          16 min
Histogram: 1 0 0 0 0 0 0 0 0 0

Total # of neighbors = 16
Ave neighs/atom = 0.16
Ave special neighs/atom = 0
Neighbor list builds = 32
Dangerous builds = 0
unfix 4b
unfix 4a

dump_modify 1 every 4000

variable vol equal vol
variable amp equal 0.01*v_vol^(1/3)
variable immed_press python getPress
python getPress input 1 press_vol.data return v_immed_press format sf here "from nemd.lmpfunc import getPress"

variable immed_modulus python getModulus
python getModulus input 2 press_vol.data 100 return v_immed_modulus format sif here "from nemd.lmpfunc import getModulus"

variable factor python getBdryFactor
python getBdryFactor input 2 1 press_vol.data return v_factor format fsf here "from nemd.lmpfunc import getBdryFactor"

variable defm_id loop 0 999 pad
label defm_start
print "defm_id = ${defm_id}"
defm_id = 000
shell mkdir defm_${defm_id}
shell mkdir defm_000
shell cd defm_${defm_id}
shell cd defm_000

fix 17a all ave/time 1 10 10 c_thermo_press v_vol file press_vol.data
fix 17b all deform 100 x wiggle ${amp} 1000 y wiggle ${amp} 1000 z wiggle ${amp} 1000
fix 17b all deform 100 x wiggle 1.593309 1000 y wiggle ${amp} 1000 z wiggle ${amp} 1000
fix 17b all deform 100 x wiggle 1.593309 1000 y wiggle 1.593309 1000 z wiggle ${amp} 1000
fix 17b all deform 100 x wiggle 1.593309 1000 y wiggle 1.593309 1000 z wiggle 1.593309 1000
fix 17c all temp/berendsen 300 300 100
fix 17d all nve
run 3000
Generated 0 of 0 mixed pair_coeff terms from geometric mixing rule
Per MPI rank memory allocation (min/avg/max) = 7.36 | 7.36 | 7.36 Mbytes
   Step          Temp          E_pair         E_mol          TotEng         Press          Volume    
     12340   300.10099     -0.75838289     0              87.801477      0.99362999     4044827.7    
     13000   299.87279     -1.016607       0              87.475911      1.0340824      3943235.5    
     14000   300.04675     -0.79580721     0              87.748046      1.0184538      3943235.5    
     15000   299.77723     -0.57316345     0              87.891156      1.0182371      3943235.5    
     15340   299.97901     -0.5331637      0              87.990701      0.99553958     4014725.5    
Loop time of 0.0143787 on 1 procs for 3000 steps with 100 atoms

Performance: 18026.651 ns/day, 0.001 hours/ns, 208641.790 timesteps/s, 20.864 Matom-step/s
88.9% CPU use with 1 MPI tasks x 1 OpenMP threads

MPI task timing breakdown:
Section |  min time  |  avg time  |  max time  |%varavg| %total
---------------------------------------------------------------
Pair    | 0.0025824  | 0.0025824  | 0.0025824  |   0.0 | 17.96
Bond    | 0.00030544 | 0.00030544 | 0.00030544 |   0.0 |  2.12
Neigh   | 0.00056116 | 0.00056116 | 0.00056116 |   0.0 |  3.90
Comm    | 0.0013971  | 0.0013971  | 0.0013971  |   0.0 |  9.72
Output  | 5.192e-05  | 5.192e-05  | 5.192e-05  |   0.0 |  0.36
Modify  | 0.008016   | 0.008016   | 0.008016   |   0.0 | 55.75
Other   |            | 0.001465   |            |       | 10.19

Nlocal:            100 ave         100 max         100 min
Histogram: 1 0 0 0 0 0 0 0 0 0
Nghost:             57 ave          57 max          57 min
Histogram: 1 0 0 0 0 0 0 0 0 0
Neighs:             15 ave          15 max          15 min
Histogram: 1 0 0 0 0 0 0 0 0 0

Total # of neighbors = 15
Ave neighs/atom = 0.15
Ave special neighs/atom = 0
Neighbor list builds = 30
Dangerous builds = 0
unfix 17d
unfix 17c
unfix 17b
unfix 17a

print "immed_press = ${immed_press}"
immed_press = 0.99277258
print "immed_modulus = ${immed_modulus}"
immed_modulus = 10
print "factor = ${factor}"
factor = 1
if "${defm_id} == 999 || ${factor} == 1" then "jump SELF defm_break"
jump SELF defm_break
variable modulus equal ${immed_modulus}
variable modulus equal 10
variable press equal ${immed_press}
variable press equal 0.99277258
shell cd ..
variable vol delete
variable amp delete
variable immed_press delete
variable immed_modulus delete
variable factor delete
variable defm_id delete

dump_modify 1 every 1000

fix 40a all temp/berendsen 300 300 100
fix 40b all nve
run 10000
Generated 0 of 0 mixed pair_coeff terms from geometric mixing rule
Per MPI rank memory allocation (min/avg/max) = 7.36 | 7.36 | 7.36 Mbytes
   Step          Temp          E_pair         E_mol          TotEng         Press     
     15340   299.97901     -0.5331637      0              87.990701      0.99553958   
     16000   299.9076      -0.55768128     0              87.945111      1.0063223    
     17000   299.98634     -0.51943212     0              88.006595      0.99982685   
     18000   299.89355     -0.50950023     0              87.989145      1.0073867    
     19000   299.94279     -0.48551687     0              88.027659      0.99564915   
     20000   299.83584     -0.57524299     0              87.906371      1.0057148    
     21000   300.01576     -0.42745021     0              88.107258      0.99653675   
     22000   299.97992     -0.5834886      0              87.940645      1.0097764    
     23000   300.04179     -0.57036031     0              87.972031      0.99436885   
     24000   299.91821     -0.87230677     0              87.633615      1.017853     
     25000   299.93157     -0.57300606     0              87.93686       0.99172385   
     25340   300.04967     -0.60016748     0              87.944548      0.99115565   
Loop time of 0.0260317 on 1 procs for 10000 steps with 100 atoms

Performance: 33190.243 ns/day, 0.001 hours/ns, 384146.327 timesteps/s, 38.415 Matom-step/s
99.6% CPU use with 1 MPI tasks x 1 OpenMP threads

MPI task timing breakdown:
Section |  min time  |  avg time  |  max time  |%varavg| %total
---------------------------------------------------------------
Pair    | 0.0039451  | 0.0039451  | 0.0039451  |   0.0 | 15.16
Bond    | 0.00066313 | 0.00066313 | 0.00066313 |   0.0 |  2.55
Neigh   | 0.0011623  | 0.0011623  | 0.0011623  |   0.0 |  4.46
Comm    | 0.003645   | 0.003645   | 0.003645   |   0.0 | 14.00
Output  | 0.0012245  | 0.0012245  | 0.0012245  |   0.0 |  4.70
Modify  | 0.0108     | 0.0108     | 0.0108     |   0.0 | 41.49
Other   |            | 0.004591   |            |       | 17.64

Nlocal:            100 ave         100 max         100 min
Histogram: 1 0 0 0 0 0 0 0 0 0
Nghost:             51 ave          51 max          51 min
Histogram: 1 0 0 0 0 0 0 0 0 0
Neighs:             11 ave          11 max          11 min
Histogram: 1 0 0 0 0 0 0 0 0 0

Total # of neighbors = 11
Ave neighs/atom = 0.11
Ave special neighs/atom = 0
Neighbor list builds = 65
Dangerous builds = 0
unfix 40b
unfix 40a

fix 41a all press/berendsen iso ${press} 1 1000 modulus ${modulus}
fix 41a all press/berendsen iso 0.99277258 1 1000 modulus ${modulus}
fix 41a all press/berendsen iso 0.99277258 1 1000 modulus 10
fix 41b all temp/berendsen 300 300 100
fix 41c all nve
run 10000
Generated 0 of 0 mixed pair_coeff terms from geometric mixing rule
Per MPI rank memory allocation (min/avg/max) = 7.36 | 7.36 | 7.36 Mbytes
   Step          Temp          E_pair         E_mol          TotEng         Press          Volume    
     25340   300.04967     -0.60016748     0              87.944548      0.99115565     4014725.5    
     26000   300.04352     -0.8163718      0              87.726529      1.0002776      4014396.2    
     27000   300.04317     -0.74816166     0              87.794635      0.98850701     4015486.6    
     28000   299.90488     -0.53521706     0              87.966772      1.0037078      4017091.5    
     29000   299.93584     -0.41393873     0              88.097187      0.9970362      4020559.9    
     30000   300.00276     -0.40039985     0              88.130474      1.0058046      4021530      
     31000   300.03445     -0.47783543     0              88.06239       1.0000113      4024284.9    
     32000   299.94235     -0.44106414     0              88.071982      1.0032238      4023774.8    
     33000   299.96748     -0.38185566     0              88.138605      1.0036109      4025250.7    
     34000   300.01382     -0.42160283     0              88.112533      1.0032641      4025888.2    
     35000   300.00696     -0.50481977     0              88.027292      0.99283337     4029143.9    
     35340   300.13558     -0.61542818     0              87.954639      0.9980943      4028518.8    
Loop time of 0.0430288 on 1 procs for 10000 steps with 100 atoms

Performance: 20079.576 ns/day, 0.001 hours/ns, 232402.506 timesteps/s, 23.240 Matom-step/s
99.8% CPU use with 1 MPI tasks x 1 OpenMP threads

MPI task timing breakdown:
Section |  min time  |  avg time  |  max time  |%varavg| %total
---------------------------------------------------------------
Pair    | 0.0076871  | 0.0076871  | 0.0076871  |   0.0 | 17.87
Bond    | 0.0011808  | 0.0011808  | 0.0011808  |   0.0 |  2.74
Neigh   | 0.001141   | 0.001141   | 0.001141   |   0.0 |  2.65
Comm    | 0.0038358  | 0.0038358  | 0.0038358  |   0.0 |  8.91
Output  | 0.0012759  | 0.0012759  | 0.0012759  |   0.0 |  2.97
Modify  | 0.023318   | 0.023318   | 0.023318   |   0.0 | 54.19
Other   |            | 0.004591   |            |       | 10.67

Nlocal:            100 ave         100 max         100 min
Histogram: 1 0 0 0 0 0 0 0 0 0
Nghost:             54 ave          54 max          54 min
Histogram: 1 0 0 0 0 0 0 0 0 0
Neighs:             14 ave          14 max          14 min
Histogram: 1 0 0 0 0 0 0 0 0 0

Total # of neighbors = 14
Ave neighs/atom = 0.14
Ave special neighs/atom = 0
Neighbor list builds = 66
Dangerous builds = 0
unfix 41c
unfix 41b
unfix 41a


variable xl equal "xhi - xlo"
variable yl equal "yhi - ylo"
variable zl equal "zhi - zlo"
fix 42a all ave/time 1 1000 1000 v_xl v_yl v_zl file xyzl.data
fix 42b all press/berendsen iso 1.0 1 1000 modulus ${modulus}
fix 42b all press/berendsen iso 1.0 1 1000 modulus 10
fix 42c all temp/berendsen 300 300 100
fix 42d all nve
run 100000
Generated 0 of 0 mixed pair_coeff terms from geometric mixing rule
Per MPI rank memory allocation (min/avg/max) = 7.36 | 7.36 | 7.36 Mbytes
   Step          Temp          E_pair         E_mol          TotEng         Press          Volume    
     35340   300.13558     -0.61542825     0              87.954639      0.99809431     4028518.8    
     36000   299.8184      -0.57294832     0              87.903521      0.99755488     4030463.7    
     37000   300.0957      -0.56288198     0              87.995417      0.99727501     4029223.2    
     38000   299.94364     -0.49816358     0              88.015262      1.0023446      4029872.5    
     39000   300.05769     -0.443905       0              88.103178      0.99238781     4029165.2    
     40000   300.05127     -0.73606931     0              87.809119      1.0031391      4028134.8    
     41000   299.93558     -0.57562157     0              87.935425      1.0041801      4027309.5    
     42000   299.94086     -0.49738867     0              88.015219      1.0132485      4028271      
     43000   299.93018     -0.36900374     0              88.14045       0.9947552      4028231.9    
     44000   300.37323     -0.67438499     0              87.965812      0.99808973     4028097.7    
     45000   300.00154     -0.56472381     0              87.965789      0.99083777     4029859.3    
     46000   300.38479     -0.7436707      0              87.899938      0.98858047     4032459.3    
     47000   300.0596      -0.59493905     0              87.952708      0.99517578     4030039.5    
     48000   299.94701     -0.36530054     0              88.149122      0.99461964     4029538.4    
     49000   299.88141     -0.53234709     0              87.962716      1.0091709      4032581.6    
     50000   299.98044     -0.40113813     0              88.123149      0.99287088     4032180      
     51000   299.96817     -0.51985321     0              88.000812      1.0055154      4033598.5    
     52000   299.65473     -0.43408035     0              87.994089      1.017414       4032731.8    
     53000   300.03357     -0.46612088     0              88.073843      0.99469979     4035172.2    
     54000   300.19436     -0.66119941     0              87.926216      0.99315157     4035800.5    
     55000   299.90338     -0.41556188     0              88.085985      0.9915496      4038625.5    
     56000   299.99325     -0.67995486     0              87.848111      0.9957684      4040844.1    
     57000   299.76296     -0.5893125      0              87.870794      0.98570248     4039526.6    
     58000   300.01319     -0.48329872     0              88.050653      1.0112832      4038220.5    
     59000   300.02032     -0.39850883     0              88.137547      0.99231409     4036074.7    
     60000   299.32317     -0.22133565     0              88.10899       1.0552023      4041126.4    
     61000   300.03449     -0.39076802     0              88.14947       0.99337752     4039661.2    
     62000   301.14115     -0.83994435     0              88.026868      1.0088718      4041693.6    
     63000   298.16106      0.22840993     0              88.215798      1.0761976      4041243.3    
     64000   299.69623     -0.18568838     0              88.254728      1.0253139      4044282.3    
     65000   300.00745     -0.21580125     0              88.316456      1.0089751      4044532.5    
     66000   300.15628     -0.27903741     0              88.297141      0.99379014     4043395.9    
     67000   299.98365     -0.27792952     0              88.247303      0.99514546     4047378.9    
     68000   299.98899     -0.44588059     0              88.08093       0.99182492     4044676.4    
     69000   299.7647      -0.31416807     0              88.146454      0.99183845     4044622.7    
     70000   298.24065      0.19835242     0              88.209227      1.0704927      4043501.1    
     71000   299.98251     -0.17970718     0              88.345189      0.9948629      4048589.8    
     72000   300.04941     -0.24378024     0              88.30086       1.0059596      4048177.1    
     73000   300.02162     -0.22890336     0              88.307536      0.9942559      4046315.1    
     74000   299.97303     -0.27116989     0              88.250931      0.99498219     4046183.8    
     75000   300.11218     -0.49251275     0              88.07065       1.0054654      4043645.6    
     76000   299.82879     -0.41762981     0              88.061904      1.0056035      4046919.6    
     77000   300.05842     -0.57752898     0              87.969768      0.99717855     4045051.9    
     78000   299.85066     -0.34722236     0              88.138766      0.99073549     4043831.6    
     79000   300.05816     -0.27410569     0              88.273116      1.0026948      4043264.9    
     80000   300.24228     -0.40660205     0              88.194954      0.99251372     4041419.9    
     81000   299.83529     -0.41798246     0              88.063471      1.0064782      4042058.2    
     82000   300.02881     -0.24850496     0              88.290054      0.99872824     4041341.3    
     83000   299.96364     -0.1711223      0              88.348206      0.99685829     4042143.6    
     84000   299.92848     -0.20571799     0              88.303234      1.0114218      4041839.4    
     85000   299.97288     -0.40609688     0              88.115958      1.0118486      4041125.4    
     86000   300.26273     -0.74601638     0              87.861573      0.99643198     4046942.1    
     87000   299.97045     -0.51994767     0              88.001389      1.0000791      4043113      
     88000   300.1336      -0.45547167     0              88.114012      0.99070648     4042261.5    
     89000   299.99386     -0.45681124     0              88.071436      0.99784425     4042277.7    
     90000   299.95337     -0.19918849     0              88.317111      0.99591021     4041602.8    
     91000   300.0202      -0.22650808     0              88.309512      1.0083605      4041734.8    
     92000   300.02556     -0.18668202     0              88.350919      0.99707463     4041000.2    
     93000   300.06593     -0.352308       0              88.197208      0.99431913     4041537.2    
     94000   298.65882     -0.13925552     0              87.995022      1.0441391      4042740.4    
     95000   299.95279     -0.17627633     0              88.339851      0.99552616     4047266.1    
     96000   299.98577     -0.29821063     0              88.227649      1.0069324      4046009.4    
     97000   299.94594     -0.24298141     0              88.271125      0.99394597     4044471.6    
     98000   300.00721     -0.30408456     0              88.228101      0.99832131     4044054.7    
     99000   300.10504     -0.28547727     0              88.275577      0.99474533     4042245.8    
    100000   299.93777     -0.55078282     0              87.960912      0.98768335     4043181.9    
    101000   300.05576     -0.49424513     0              88.052269      1.000552       4039434.9    
    102000   299.96014     -0.33064361     0              88.187652      0.99255089     4039738.8    
    103000   299.9515      -0.33078329     0              88.184961      1.0047981      4038331.2    
    104000   300.03155     -0.22926179     0              88.310107      0.99678417     4037186.8    
    105000   299.9271      -0.27253393     0              88.236011      0.99643385     4037672.4    
    106000   300.06742     -0.25761855     0              88.292335      0.99979588     4036661.7    
    107000   299.95859     -0.18257932     0              88.335258      0.99764576     4037687.3    
    108000   299.93392     -0.23107977     0              88.279478      1.0114476      4037737.8    
    109000   300.09299     -0.25286342     0              88.304637      0.99592034     4037561.7    
    110000   299.89137     -0.49080937     0              88.007192      1.0024229      4038311      
    111000   299.99855     -0.26344152     0              88.266188      0.99736581     4037407.1    
    112000   299.95092     -0.18546921     0              88.330105      0.99759954     4038490.4    
    113000   299.98226     -0.27559481     0              88.249229      1.0079666      4038007.3    
    114000   299.6889      -0.35990102     0              88.078351      1.011479       4039850.8    
    115000   300.05589     -0.39192358     0              88.154628      0.99664034     4040855.8    
    116000   299.83012     -0.41142278     0              88.068504      0.99656603     4037086.3    
    117000   299.96703     -0.19265309     0              88.327676      0.99688161     4037568.3    
    118000   299.90564     -0.20262454     0              88.299588      1.0151158      4037597.3    
    119000   299.92593     -0.40734247     0              88.100858      0.99176778     4037057.4    
    120000   300.03914     -0.37306678     0              88.168542      0.99824661     4036770.5    
    121000   300.10962     -0.27676288     0              88.285644      0.9958733      4035209.3    
    122000   299.8987      -0.23512825     0              88.265035      0.99650946     4037645.6    
    123000   300.07799     -0.26921602     0              88.283858      0.99839282     4036472.8    
    124000   299.95196     -0.20121505     0              88.314667      0.99673693     4037443.4    
    125000   299.90763     -0.21504797     0              88.287753      1.0114462      4036986.2    
    126000   300.01844     -0.21320947     0              88.322292      0.9963825      4037515.7    
    127000   300.14589     -0.5519364      0              88.021175      1.0045344      4037296.8    
    128000   299.9889      -0.28264576     0              88.244137      0.99505392     4035171.2    
    129000   300.09637     -0.45657423     0              88.101922      1.0015535      4037213.2    
    130000   299.98453     -0.40088802     0              88.124605      0.99282578     4038365.9    
    131000   299.92033     -0.38706078     0              88.119486      0.9947047      4038606.8    
    132000   299.92215     -0.25082664     0              88.256259      1.0076232      4037081.7    
    133000   299.98397     -0.15522212     0              88.370107      0.99808032     4038026.5    
    134000   300.16594     -0.30511574     0              88.273911      1.0064147      4038915.3    
    135000   299.90665     -0.24165572     0              88.260854      0.99499315     4039883.8    
    135340   300.0339      -0.26031818     0              88.279745      0.99874145     4039396.8    
Loop time of 0.746201 on 1 procs for 100000 steps with 100 atoms

Performance: 11578.652 ns/day, 0.002 hours/ns, 134012.174 timesteps/s, 13.401 Matom-step/s
99.6% CPU use with 1 MPI tasks x 1 OpenMP threads

MPI task timing breakdown:
Section |  min time  |  avg time  |  max time  |%varavg| %total
---------------------------------------------------------------
Pair    | 0.079743   | 0.079743   | 0.079743   |   0.0 | 10.69
Bond    | 0.013012   | 0.013012   | 0.013012   |   0.0 |  1.74
Neigh   | 0.013727   | 0.013727   | 0.013727   |   0.0 |  1.84
Comm    | 0.041372   | 0.041372   | 0.041372   |   0.0 |  5.54
Output  | 0.013412   | 0.013412   | 0.013412   |   0.0 |  1.80
Modify  | 0.53619    | 0.53619    | 0.53619    |   0.0 | 71.86
Other   |            | 0.04874    |            |       |  6.53

Nlocal:            100 ave         100 max         100 min
Histogram: 1 0 0 0 0 0 0 0 0 0
Nghost:             57 ave          57 max          57 min
Histogram: 1 0 0 0 0 0 0 0 0 0
Neighs:             12 ave          12 max          12 min
Histogram: 1 0 0 0 0 0 0 0 0 0

Total # of neighbors = 12
Ave neighs/atom = 0.12
Ave special neighs/atom = 0
Neighbor list builds = 767
Dangerous builds = 0
unfix 42d
unfix 42c
unfix 42b
unfix 42a


print "Final Boundary: xl = ${xl}, yl = ${yl}, zl = ${zl}"
Final Boundary: xl = 159.259558482661, yl = 159.259558482661, zl = 159.259558482661
variable ave_xl python getXL
python getXL input 1 xyzl.data return v_ave_xl format sf here "from nemd.lmpfunc import getXL"
variable ave_yl python getYL
python getYL input 1 xyzl.data return v_ave_yl format sf here "from nemd.lmpfunc import getYL"
variable ave_zl python getZL
python getZL input 1 xyzl.data return v_ave_zl format sf here "from nemd.lmpfunc import getZL"
print "Averaged  xl = ${ave_xl} yl = ${ave_yl} zl = ${ave_zl}"
Averaged  xl = 159.2329 yl = 159.2329 zl = 159.2329

variable ave_xr equal "v_ave_xl / v_xl"
variable ave_yr equal "v_ave_yl / v_yl"
variable ave_zr equal "v_ave_zl / v_zl"
change_box all x scale ${ave_xr} y scale ${ave_yr} z scale ${ave_zr} remap
change_box all x scale 0.999832609841978 y scale ${ave_yr} z scale ${ave_zr} remap
change_box all x scale 0.999832609841978 y scale 0.999832609841978 z scale ${ave_zr} remap
change_box all x scale 0.999832609841978 y scale 0.999832609841978 z scale 0.999832609841978 remap
Changing box ...
  orthogonal box = (0.049 0.035670759 0.035670759) to (159.2819 159.29523 159.29523)
  orthogonal box = (0.049 0.049 0.035670759) to (159.2819 159.2819 159.29523)
  orthogonal box = (0.049 0.049 0.049) to (159.2819 159.2819 159.2819)
variable ave_xr delete
variable ave_yr delete
variable ave_zr delete
variable ave_xl delete
variable ave_yl delete
variable ave_zl delete
variable xl delete
variable yl delete
variable zl delete

fix 44a all temp/berendsen 300 300 100
fix 44b all nve
run 1000
Generated 0 of 0 mixed pair_coeff terms from geometric mixing rule
Per MPI rank memory allocation (min/avg/max) = 7.36 | 7.36 | 7.36 Mbytes
   Step          Temp          E_pair         E_mol          TotEng         Press     
    135340   300.0339      -0.2604137      0              88.27965       0.99925119   
    136000   299.97035     -0.23433289     0              88.286975      0.99790053   
    136340   299.99914     -0.20636229     0              88.323443      0.99674432   
Loop time of 0.00271986 on 1 procs for 1000 steps with 100 atoms

Performance: 31766.294 ns/day, 0.001 hours/ns, 367665.442 timesteps/s, 36.767 Matom-step/s
99.3% CPU use with 1 MPI tasks x 1 OpenMP threads

MPI task timing breakdown:
Section |  min time  |  avg time  |  max time  |%varavg| %total
---------------------------------------------------------------
Pair    | 0.00043301 | 0.00043301 | 0.00043301 |   0.0 | 15.92
Bond    | 6.6546e-05 | 6.6546e-05 | 6.6546e-05 |   0.0 |  2.45
Neigh   | 0.0001501  | 0.0001501  | 0.0001501  |   0.0 |  5.52
Comm    | 0.0003629  | 0.0003629  | 0.0003629  |   0.0 | 13.34
Output  | 0.00013793 | 0.00013793 | 0.00013793 |   0.0 |  5.07
Modify  | 0.0011287  | 0.0011287  | 0.0011287  |   0.0 | 41.50
Other   |            | 0.0004407  |            |       | 16.20

Nlocal:            100 ave         100 max         100 min
Histogram: 1 0 0 0 0 0 0 0 0 0
Nghost:             58 ave          58 max          58 min
Histogram: 1 0 0 0 0 0 0 0 0 0
Neighs:             14 ave          14 max          14 min
Histogram: 1 0 0 0 0 0 0 0 0 0

Total # of neighbors = 14
Ave neighs/atom = 0.14
Ave special neighs/atom = 0
Neighbor list builds = 8
Dangerous builds = 0
unfix 44b
unfix 44a

fix 45a all temp/berendsen 300 300 100
fix 45b all nve
run 10000
Generated 0 of 0 mixed pair_coeff terms from geometric mixing rule
Per MPI rank memory allocation (min/avg/max) = 7.36 | 7.36 | 7.36 Mbytes
   Step          Temp          E_pair         E_mol          TotEng         Press     
    136340   299.99914     -0.20636229     0              88.323443      0.99674432   
    137000   300.12144     -0.45900846     0              88.106887      0.99461658   
    138000   299.97166     -0.25011134     0              88.271585      0.99542951   
    139000   299.97408     -0.50288924     0              88.019521      1.0037265    
    140000   299.9169      -0.30432311     0              88.201212      0.99322368   
    141000   300.26578     -0.38277469     0              88.225714      1.0328598    
    142000   300.21387     -0.4024174      0              88.190754      0.99584993   
    143000   299.98044     -0.2767974      0              88.247488      0.99650637   
    144000   300.32203     -0.45985593     0              88.165233      0.99296743   
    145000   299.99939     -0.32857114     0              88.201309      0.99396257   
    146000   300.01031     -0.58903554     0              87.944065      1.0001751    
    146340   298.81623     -0.19646904     0              87.984259      1.04956      
Loop time of 0.0280459 on 1 procs for 10000 steps with 100 atoms

Performance: 30806.617 ns/day, 0.001 hours/ns, 356558.064 timesteps/s, 35.656 Matom-step/s
99.0% CPU use with 1 MPI tasks x 1 OpenMP threads

MPI task timing breakdown:
Section |  min time  |  avg time  |  max time  |%varavg| %total
---------------------------------------------------------------
Pair    | 0.0039937  | 0.0039937  | 0.0039937  |   0.0 | 14.24
Bond    | 0.00068373 | 0.00068373 | 0.00068373 |   0.0 |  2.44
Neigh   | 0.001525   | 0.001525   | 0.001525   |   0.0 |  5.44
Comm    | 0.0040039  | 0.0040039  | 0.0040039  |   0.0 | 14.28
Output  | 0.0011588  | 0.0011588  | 0.0011588  |   0.0 |  4.13
Modify  | 0.011947   | 0.011947   | 0.011947   |   0.0 | 42.60
Other   |            | 0.004734   |            |       | 16.88

Nlocal:            100 ave         100 max         100 min
Histogram: 1 0 0 0 0 0 0 0 0 0
Nghost:             55 ave          55 max          55 min
Histogram: 1 0 0 0 0 0 0 0 0 0
Neighs:             15 ave          15 max          15 min
Histogram: 1 0 0 0 0 0 0 0 0 0

Total # of neighbors = 15
Ave neighs/atom = 0.15
Ave special neighs/atom = 0
Neighbor list builds = 81
Dangerous builds = 0
unfix 45b
unfix 45a

quit 0
