..........Options..........
inscript: amorp_bldr.in
data_file: amorp_bldr.data
NAME: lammps
JOBNAME: lammps
INTERAC: False
PYTHON: 2
CPU: 1
DEBUG: False
JobStart: 19:06:28 03/13/2025
...........................
Running lammps simulations...
LAMMPS (19 Nov 2024)
  using 1 OpenMP thread(s) per MPI task
Reading data file ...
  orthogonal box = (0 0 0) to (5.1002 5.1002 5.1002)
  1 by 1 by 1 MPI processor grid
  reading atoms ...
  1 atoms
Finding 1-2 1-3 1-4 neighbors ...
  special bond factors lj:    0        0        0.5     
  special bond factors coul:  0        0        0.5     
     0 = max # of 1-2 neighbors
     0 = max # of 1-3 neighbors
     0 = max # of 1-4 neighbors
     1 = max # of special neighbors
  special bonds CPU = 0.000 seconds
  read_data CPU = 0.002 seconds
Generated 0 of 0 mixed pair_coeff terms from geometric mixing rule
Neighbor list info ...
  update: every = 1 steps, delay = 0 steps, check = yes
  max neighbors/atom: 2000, page size: 100000
  master list distance cutoff = 13
  ghost atom cutoff = 13
  binsize = 6.5, bins = 1 1 1
  1 neighbor lists, perpetual/occasional/extra = 1 0 0
  (1) pair lj/cut, perpetual
      attributes: half, newton on
      pair build: half/bin/newton
      stencil: half/bin/3d
      bin: standard
Setting up fire style minimization ...
  Unit style    : real
  Current step  : 0
  Parameters for fire:
    dmax  delaystep dtgrow dtshrink alpha0 alphashrink tmax tmin   integrator   halfstepback   abcfire  
     0.1     20      1.1     0.5     0.25     0.99      10  0.02 eulerimplicit      yes          no     
Per MPI rank memory allocation (min/avg/max) = 5.929 | 5.929 | 5.929 Mbytes
   Step          Temp          E_pair         E_mol          TotEng         Press     
         0   0             -0.30223793     0             -0.30223793    -289.23413    
         1   0             -0.30223793     0             -0.30223793    -289.23413    
Loop time of 2.5314e-05 on 1 procs for 1 steps with 1 atoms

86.9% CPU use with 1 MPI tasks x 1 OpenMP threads

Minimization stats:
  Stopping criterion = force tolerance
  Energy initial, next-to-last, final = 
    -0.302237930546245 -0.302237930546245 -0.302237930546245
  Force two-norm initial, final = 1.6729067e-17 1.6729067e-17
  Force max component initial, final = 1.3877788e-17 1.3877788e-17
  Final line search alpha, max atom move = 0 0
  Iterations, force evaluations = 1 2

MPI task timing breakdown:
Section |  min time  |  avg time  |  max time  |%varavg| %total
---------------------------------------------------------------
Pair    | 2.464e-06  | 2.464e-06  | 2.464e-06  |   0.0 |  9.73
Bond    | 8.2e-07    | 8.2e-07    | 8.2e-07    |   0.0 |  3.24
Neigh   | 0          | 0          | 0          |   0.0 |  0.00
Comm    | 5.268e-06  | 5.268e-06  | 5.268e-06  |   0.0 | 20.81
Output  | 0          | 0          | 0          |   0.0 |  0.00
Modify  | 0          | 0          | 0          |   0.0 |  0.00
Other   |            | 1.676e-05  |            |       | 66.22

Nlocal:              1 ave           1 max           1 min
Histogram: 1 0 0 0 0 0 0 0 0 0
Nghost:            215 ave         215 max         215 min
Histogram: 1 0 0 0 0 0 0 0 0 0
Neighs:             40 ave          40 max          40 min
Histogram: 1 0 0 0 0 0 0 0 0 0

Total # of neighbors = 40
Ave neighs/atom = 40
Ave special neighs/atom = 0
Neighbor list builds = 0
Dangerous builds = 0
WARNING: No fixes with time integration, atoms won't move (src/verlet.cpp:60)
Generated 0 of 0 mixed pair_coeff terms from geometric mixing rule
Setting up Verlet run ...
  Unit style    : real
  Current step  : 1
  Time step     : 1
Per MPI rank memory allocation (min/avg/max) = 7.179 | 7.179 | 7.179 Mbytes
   Step          Temp          E_pair         E_mol          TotEng         Press     
         1   0             -0.30223793     0             -0.30223793    -289.23413    
Loop time of 9.71e-07 on 1 procs for 0 steps with 1 atoms

103.0% CPU use with 1 MPI tasks x 1 OpenMP threads

MPI task timing breakdown:
Section |  min time  |  avg time  |  max time  |%varavg| %total
---------------------------------------------------------------
Pair    | 0          | 0          | 0          |   0.0 |  0.00
Bond    | 0          | 0          | 0          |   0.0 |  0.00
Neigh   | 0          | 0          | 0          |   0.0 |  0.00
Comm    | 0          | 0          | 0          |   0.0 |  0.00
Output  | 0          | 0          | 0          |   0.0 |  0.00
Modify  | 0          | 0          | 0          |   0.0 |  0.00
Other   |            | 9.71e-07   |            |       |100.00

Nlocal:              1 ave           1 max           1 min
Histogram: 1 0 0 0 0 0 0 0 0 0
Nghost:            215 ave         215 max         215 min
Histogram: 1 0 0 0 0 0 0 0 0 0
Neighs:             40 ave          40 max          40 min
Histogram: 1 0 0 0 0 0 0 0 0 0

Total # of neighbors = 40
Ave neighs/atom = 40
Ave special neighs/atom = 0
Neighbor list builds = 0
Dangerous builds = 0

[Tengs-MacBook-Pro.local:02875] shmem: mmap: an error occurred while determining whether or not /var/folders/bk/wg487n5j7573mcb1vjqqz1j00000gn/T//ompi.Tengs-MacBook-Pro.501/jf.0/3561160704/sm_segment.Tengs-MacBook-Pro.501.d4430000.0 could be created.

Finished.
19:06:29 03/13/2025
