LAMMPS Description # full

50 atoms
45 bonds
40 angles
35 dihedrals
0 impropers

2 atom types
2 bond types
2 angle types
1 dihedral types
0 improper types

0 7.7377 xlo xhi
0 7.7377 ylo yhi
0 7.7377 zlo zhi

Masses

1 15.0350 # C CH3 n-Butane 83 #
2 14.0270 # C CH2 n-Butane 86 #

Pair Coeffs

1 0.1750 3.9050
2 0.1180 3.9050

Bond Coeffs

1 260.0000 1.5260
2 260.0000 1.5260

Angle Coeffs

1 63.0000 112.4000
2 63.0000 112.4000

Dihedral Coeffs

1 0.0000 0.0000 4.0000 0.0000

Atoms

1 1 1 0.0000 3.7543 2.2160 0.8132
2 1 2 0.0000 3.3250 2.8506 2.1329
3 1 2 0.0000 3.3176 1.8493 3.2845
4 1 2 0.0000 2.6613 2.4134 4.5414
5 1 2 0.0000 1.1532 2.5846 4.3830
6 1 2 0.0000 0.7892 3.8536 3.6175
7 1 2 0.0000 -0.7060 4.1543 3.6679
8 1 2 0.0000 -1.0700 5.4233 2.9024
9 1 2 0.0000 -0.2934 5.5570 1.5956
10 1 1 0.0000 0.3594 6.9281 1.4447
11 2 1 0.0000 0.5254 5.8282 5.7806
12 2 2 0.0000 1.5512 5.5107 4.6964
13 2 2 0.0000 1.4321 6.4412 3.4928
14 2 2 0.0000 2.0984 7.7926 3.7343
15 2 2 0.0000 2.2879 8.0905 5.2189
16 2 2 0.0000 2.9493 6.9347 5.9642
17 2 2 0.0000 3.4834 5.8628 5.0184
18 2 2 0.0000 4.5318 6.4089 4.0533
19 2 2 0.0000 5.7441 6.9870 4.7777
20 2 1 0.0000 5.8688 6.4686 6.2075
21 3 1 0.0000 6.6554 1.0234 2.0335
22 3 2 0.0000 5.4165 0.4051 1.3920
23 3 2 0.0000 5.7651 -0.7101 0.4104
24 3 2 0.0000 4.8014 -1.8896 0.5043
25 3 2 0.0000 5.1500 -3.0048 -0.4773
26 3 2 0.0000 6.6545 -3.2364 -0.5839
27 3 2 0.0000 7.1013 -3.5050 -2.0181
28 3 2 0.0000 6.6283 -4.8625 -2.5300
29 3 2 0.0000 6.2644 -5.8169 -1.3963
30 3 1 0.0000 5.9854 -5.0847 -0.0868
31 4 1 0.0000 0.6761 1.4808 6.4398
32 4 2 0.0000 0.2849 2.3112 7.6589
33 4 2 0.0000 1.4532 3.1257 8.2068
34 4 2 0.0000 2.1659 3.9245 7.1193
35 4 2 0.0000 2.7803 5.2150 7.6539
36 4 2 0.0000 2.1546 5.6534 8.9748
37 4 2 0.0000 2.3241 4.6083 10.0738
38 4 2 0.0000 3.6090 4.8074 10.8724
39 4 2 0.0000 4.8567 4.7191 9.9982
40 4 1 0.0000 5.2584 3.2771 9.7020
41 5 1 0.0000 3.0174 -0.1642 1.8047
42 5 2 0.0000 2.8865 0.3383 0.3697
43 5 2 0.0000 4.2406 0.5063 -0.3134
44 5 2 0.0000 4.1311 1.2334 -1.6506
45 5 2 0.0000 4.2677 2.7460 -1.5029
46 5 2 0.0000 4.4031 3.4519 -2.8490
47 5 2 0.0000 5.0824 2.5770 -3.8987
48 5 2 0.0000 5.4648 1.2044 -3.3525
49 5 2 0.0000 6.9745 1.0366 -3.2063
50 5 1 0.0000 7.5152 -0.1179 -4.0451

Bonds

1 1 1 2
2 2 3 4
3 2 5 6
4 2 7 8
5 1 9 10
6 2 2 3
7 2 4 5
8 2 6 7
9 2 8 9
10 1 11 12
11 2 13 14
12 2 15 16
13 2 17 18
14 1 19 20
15 2 12 13
16 2 14 15
17 2 16 17
18 2 18 19
19 1 21 22
20 2 23 24
21 2 25 26
22 2 27 28
23 1 29 30
24 2 22 23
25 2 24 25
26 2 26 27
27 2 28 29
28 1 31 32
29 2 33 34
30 2 35 36
31 2 37 38
32 1 39 40
33 2 32 33
34 2 34 35
35 2 36 37
36 2 38 39
37 1 41 42
38 2 43 44
39 2 45 46
40 2 47 48
41 1 49 50
42 2 42 43
43 2 44 45
44 2 46 47
45 2 48 49

Angles

1 1 1 2 3
2 2 4 3 2
3 2 3 4 5
4 2 6 5 4
5 2 5 6 7
6 2 8 7 6
7 2 7 8 9
8 1 10 9 8
9 1 11 12 13
10 2 14 13 12
11 2 13 14 15
12 2 16 15 14
13 2 15 16 17
14 2 18 17 16
15 2 17 18 19
16 1 20 19 18
17 1 21 22 23
18 2 24 23 22
19 2 23 24 25
20 2 26 25 24
21 2 25 26 27
22 2 28 27 26
23 2 27 28 29
24 1 30 29 28
25 1 31 32 33
26 2 34 33 32
27 2 33 34 35
28 2 36 35 34
29 2 35 36 37
30 2 38 37 36
31 2 37 38 39
32 1 40 39 38
33 1 41 42 43
34 2 44 43 42
35 2 43 44 45
36 2 46 45 44
37 2 45 46 47
38 2 48 47 46
39 2 47 48 49
40 1 50 49 48

Dihedrals

1 1 1 2 3 4
2 1 2 3 4 5
3 1 3 4 5 6
4 1 4 5 6 7
5 1 5 6 7 8
6 1 6 7 8 9
7 1 7 8 9 10
8 1 11 12 13 14
9 1 12 13 14 15
10 1 13 14 15 16
11 1 14 15 16 17
12 1 15 16 17 18
13 1 16 17 18 19
14 1 17 18 19 20
15 1 21 22 23 24
16 1 22 23 24 25
17 1 23 24 25 26
18 1 24 25 26 27
19 1 25 26 27 28
20 1 26 27 28 29
21 1 27 28 29 30
22 1 31 32 33 34
23 1 32 33 34 35
24 1 33 34 35 36
25 1 34 35 36 37
26 1 35 36 37 38
27 1 36 37 38 39
28 1 37 38 39 40
29 1 41 42 43 44
30 1 42 43 44 45
31 1 43 44 45 46
32 1 44 45 46 47
33 1 45 46 47 48
34 1 46 47 48 49
35 1 47 48 49 50

