LAMMPS Description # full

50 atoms
45 bonds
40 angles
35 dihedrals
0 impropers

2 atom types
2 bond types
2 angle types
1 dihedral types
0 improper types

0 7.6878 xlo xhi
0 7.6878 ylo yhi
0 7.6878 zlo zhi

Masses

1 15.0350 # C CH3 n-Butane 83 #
2 14.0270 # C CH2 n-Butane 86 #

Pair Coeffs

1 0.1750 3.9050
2 0.1180 3.9050

Bond Coeffs

1 260.0000 1.5260
2 260.0000 1.5260

Angle Coeffs

1 63.0000 112.4000
2 63.0000 112.4000

Dihedral Coeffs

1 0.0000 0.0000 4.0000 0.0000

Atoms

1 1 1 0.0000 5.1433 3.0381 5.0660
2 1 2 0.0000 6.3044 2.2241 4.5022
3 1 2 0.0000 5.9422 0.7551 4.3034
4 1 2 0.0000 5.3675 0.4804 2.9167
5 1 2 0.0000 5.8739 -0.8329 2.3270
6 1 2 0.0000 6.8259 -0.6150 1.1545
7 1 2 0.0000 6.3761 0.5239 0.2440
8 1 2 0.0000 5.6043 1.6021 0.9994
9 1 2 0.0000 6.1348 3.0043 0.7148
10 1 1 0.0000 5.8288 3.4642 -0.7078
11 2 1 0.0000 0.6138 3.2637 -0.7490
12 2 2 0.0000 0.6335 1.7486 -0.5682
13 2 2 0.0000 0.3542 1.0038 -1.8705
14 2 2 0.0000 1.5861 0.9178 -2.7670
15 2 2 0.0000 2.6347 1.9697 -2.4168
16 2 2 0.0000 3.9685 1.3489 -2.0117
17 2 2 0.0000 4.1553 1.3088 -0.4977
18 2 2 0.0000 4.3336 -0.1123 0.0288
19 2 2 0.0000 4.5269 -1.1282 -1.0933
20 2 1 0.0000 3.8122 -0.7188 -2.3779
21 3 1 0.0000 3.1852 6.0371 0.5012
22 3 2 0.0000 4.1498 5.9969 1.6830
23 3 2 0.0000 3.5615 5.2710 2.8895
24 3 2 0.0000 4.5889 4.3925 3.5974
25 3 2 0.0000 6.0079 4.9391 3.4698
26 3 2 0.0000 7.0676 3.8716 3.7269
27 3 2 0.0000 8.2473 4.4058 4.5341
28 3 2 0.0000 9.5851 3.8682 4.0341
29 3 2 0.0000 10.7356 4.2012 4.9797
30 3 1 0.0000 10.3273 5.1918 6.0662
31 4 1 0.0000 7.7290 5.1818 -0.8319
32 4 2 0.0000 6.2531 5.4594 -0.5612
33 4 2 0.0000 5.8930 5.3034 0.9135
34 4 2 0.0000 7.0227 4.6754 1.7247
35 4 2 0.0000 8.3999 5.0056 1.1563
36 4 2 0.0000 9.2688 3.7637 0.9789
37 4 2 0.0000 10.4115 3.9895 -0.0069
38 4 2 0.0000 11.7603 3.5503 0.5558
39 4 2 0.0000 11.6455 2.9897 1.9705
40 4 1 0.0000 13.0079 2.7784 2.6246
41 5 1 0.0000 1.6037 -1.5351 3.8471
42 5 2 0.0000 0.5030 -0.8915 3.0088
43 5 2 0.0000 0.1026 0.4848 3.5325
44 5 2 0.0000 0.0890 1.5437 2.4337
45 5 2 0.0000 1.4381 2.2402 2.2806
46 5 2 0.0000 2.5942 1.2503 2.1691
47 5 2 0.0000 2.1296 -0.1417 1.7507
48 5 2 0.0000 1.2255 -0.1081 0.5218
49 5 2 0.0000 1.9732 -0.4637 -0.7600
50 5 1 0.0000 1.0332 -0.9060 -1.8778

Bonds

1 1 1 2
2 2 3 4
3 2 5 6
4 2 7 8
5 1 9 10
6 2 2 3
7 2 4 5
8 2 6 7
9 2 8 9
10 1 11 12
11 2 13 14
12 2 15 16
13 2 17 18
14 1 19 20
15 2 12 13
16 2 14 15
17 2 16 17
18 2 18 19
19 1 21 22
20 2 23 24
21 2 25 26
22 2 27 28
23 1 29 30
24 2 22 23
25 2 24 25
26 2 26 27
27 2 28 29
28 1 31 32
29 2 33 34
30 2 35 36
31 2 37 38
32 1 39 40
33 2 32 33
34 2 34 35
35 2 36 37
36 2 38 39
37 1 41 42
38 2 43 44
39 2 45 46
40 2 47 48
41 1 49 50
42 2 42 43
43 2 44 45
44 2 46 47
45 2 48 49

Angles

1 1 1 2 3
2 2 4 3 2
3 2 3 4 5
4 2 6 5 4
5 2 5 6 7
6 2 8 7 6
7 2 7 8 9
8 1 10 9 8
9 1 11 12 13
10 2 14 13 12
11 2 13 14 15
12 2 16 15 14
13 2 15 16 17
14 2 18 17 16
15 2 17 18 19
16 1 20 19 18
17 1 21 22 23
18 2 24 23 22
19 2 23 24 25
20 2 26 25 24
21 2 25 26 27
22 2 28 27 26
23 2 27 28 29
24 1 30 29 28
25 1 31 32 33
26 2 34 33 32
27 2 33 34 35
28 2 36 35 34
29 2 35 36 37
30 2 38 37 36
31 2 37 38 39
32 1 40 39 38
33 1 41 42 43
34 2 44 43 42
35 2 43 44 45
36 2 46 45 44
37 2 45 46 47
38 2 48 47 46
39 2 47 48 49
40 1 50 49 48

Dihedrals

1 1 2 3 4 5
2 1 1 2 3 4
3 1 4 5 6 7
4 1 3 4 5 6
5 1 6 7 8 9
6 1 5 6 7 8
7 1 7 8 9 10
8 1 12 13 14 15
9 1 11 12 13 14
10 1 14 15 16 17
11 1 13 14 15 16
12 1 16 17 18 19
13 1 15 16 17 18
14 1 17 18 19 20
15 1 22 23 24 25
16 1 21 22 23 24
17 1 24 25 26 27
18 1 23 24 25 26
19 1 26 27 28 29
20 1 25 26 27 28
21 1 27 28 29 30
22 1 32 33 34 35
23 1 31 32 33 34
24 1 34 35 36 37
25 1 33 34 35 36
26 1 36 37 38 39
27 1 35 36 37 38
28 1 37 38 39 40
29 1 42 43 44 45
30 1 41 42 43 44
31 1 44 45 46 47
32 1 43 44 45 46
33 1 46 47 48 49
34 1 45 46 47 48
35 1 47 48 49 50

