LAMMPS Description # full

50 atoms
45 bonds
40 angles
35 dihedrals
0 impropers

2 atom types
2 bond types
2 angle types
1 dihedral types
0 improper types

0 7.7377 xlo xhi
0 7.7377 ylo yhi
0 7.7377 zlo zhi

Masses

1 15.0350 # C CH3 n-Butane 83 #
2 14.0270 # C CH2 n-Butane 86 #

Pair Coeffs

1 0.1750 3.9050
2 0.1180 3.9050

Bond Coeffs

1 260.0000 1.5260
2 260.0000 1.5260

Angle Coeffs

1 63.0000 112.4000
2 63.0000 112.4000

Dihedral Coeffs

1 0.0000 0.0000 4.0000 0.0000

Atoms

1 1 1 0.0000 2.9914 3.2780 1.5548
2 1 2 0.0000 3.7310 4.5639 1.9130
3 1 2 0.0000 2.7928 5.7621 2.0262
4 1 2 0.0000 3.4784 7.0744 1.6565
5 1 2 0.0000 2.7451 8.2908 2.2144
6 1 2 0.0000 1.6498 7.9059 3.2047
7 1 2 0.0000 2.2033 7.5968 4.5928
8 1 2 0.0000 3.5110 6.8124 4.5360
9 1 2 0.0000 4.6718 7.6541 4.0137
10 1 1 0.0000 5.4140 8.3792 5.1326
11 2 1 0.0000 4.7894 0.2417 7.4637
12 2 2 0.0000 3.8246 1.4134 7.6217
13 2 2 0.0000 2.9840 1.6475 6.3697
14 2 2 0.0000 1.6128 2.2349 6.6913
15 2 2 0.0000 0.7892 1.3259 7.5992
16 2 2 0.0000 -0.3946 0.6955 6.8714
17 2 2 0.0000 -0.4658 -0.8150 7.0764
18 2 2 0.0000 -0.8616 -1.5567 5.8028
19 2 2 0.0000 -0.6220 -0.7240 4.5467
20 2 1 0.0000 0.1757 0.5449 4.8335
21 3 1 0.0000 0.9377 2.4441 3.1955
22 3 2 0.0000 0.5159 2.3849 1.7301
23 3 2 0.0000 1.1310 3.5095 0.9021
24 3 2 0.0000 0.7304 4.8916 1.4100
25 3 2 0.0000 -0.6628 5.3020 0.9416
26 3 2 0.0000 -1.7686 4.6678 1.7805
27 3 2 0.0000 -1.9907 5.4014 3.1001
28 3 2 0.0000 -0.9609 5.0181 4.1590
29 3 2 0.0000 0.2965 4.4029 3.5514
30 3 1 0.0000 1.4420 5.4056 3.4461
31 4 1 0.0000 1.7279 7.3780 6.8037
32 4 2 0.0000 1.1794 6.1642 6.0591
33 4 2 0.0000 2.2391 5.0880 5.8410
34 4 2 0.0000 2.2913 4.0825 6.9877
35 4 2 0.0000 3.7091 3.8696 7.5103
36 4 2 0.0000 4.5048 5.1699 7.5795
37 4 2 0.0000 4.8543 5.7121 6.1966
38 4 2 0.0000 4.7765 4.6389 5.1145
39 4 2 0.0000 3.6013 4.8544 4.1652
40 4 1 0.0000 2.5091 3.8038 4.3440
41 5 1 0.0000 7.6489 0.3873 2.1188
42 5 2 0.0000 6.1443 0.5218 1.9024
43 5 2 0.0000 5.7525 1.9025 1.3840
44 5 2 0.0000 6.4109 2.2300 0.0468
45 5 2 0.0000 6.0191 3.6107 -0.4716
46 5 2 0.0000 6.6774 3.9382 -1.8088
47 5 2 0.0000 6.9356 2.6918 -2.6505
48 5 2 0.0000 6.6448 2.9195 -4.1312
49 5 2 0.0000 5.1553 2.8332 -4.4513
50 5 1 0.0000 4.2922 2.7840 -3.1938

Bonds

1 1 1 2
2 2 3 4
3 2 5 6
4 2 7 8
5 1 9 10
6 2 2 3
7 2 4 5
8 2 6 7
9 2 8 9
10 1 11 12
11 2 13 14
12 2 15 16
13 2 17 18
14 1 19 20
15 2 12 13
16 2 14 15
17 2 16 17
18 2 18 19
19 1 21 22
20 2 23 24
21 2 25 26
22 2 27 28
23 1 29 30
24 2 22 23
25 2 24 25
26 2 26 27
27 2 28 29
28 1 31 32
29 2 33 34
30 2 35 36
31 2 37 38
32 1 39 40
33 2 32 33
34 2 34 35
35 2 36 37
36 2 38 39
37 1 41 42
38 2 43 44
39 2 45 46
40 2 47 48
41 1 49 50
42 2 42 43
43 2 44 45
44 2 46 47
45 2 48 49

Angles

1 1 1 2 3
2 2 4 3 2
3 2 3 4 5
4 2 6 5 4
5 2 5 6 7
6 2 8 7 6
7 2 7 8 9
8 1 10 9 8
9 1 11 12 13
10 2 14 13 12
11 2 13 14 15
12 2 16 15 14
13 2 15 16 17
14 2 18 17 16
15 2 17 18 19
16 1 20 19 18
17 1 21 22 23
18 2 24 23 22
19 2 23 24 25
20 2 26 25 24
21 2 25 26 27
22 2 28 27 26
23 2 27 28 29
24 1 30 29 28
25 1 31 32 33
26 2 34 33 32
27 2 33 34 35
28 2 36 35 34
29 2 35 36 37
30 2 38 37 36
31 2 37 38 39
32 1 40 39 38
33 1 41 42 43
34 2 44 43 42
35 2 43 44 45
36 2 46 45 44
37 2 45 46 47
38 2 48 47 46
39 2 47 48 49
40 1 50 49 48

Dihedrals

1 1 1 2 3 4
2 1 2 3 4 5
3 1 3 4 5 6
4 1 4 5 6 7
5 1 5 6 7 8
6 1 6 7 8 9
7 1 7 8 9 10
8 1 11 12 13 14
9 1 12 13 14 15
10 1 13 14 15 16
11 1 14 15 16 17
12 1 15 16 17 18
13 1 16 17 18 19
14 1 17 18 19 20
15 1 21 22 23 24
16 1 22 23 24 25
17 1 23 24 25 26
18 1 24 25 26 27
19 1 25 26 27 28
20 1 26 27 28 29
21 1 27 28 29 30
22 1 31 32 33 34
23 1 32 33 34 35
24 1 33 34 35 36
25 1 34 35 36 37
26 1 35 36 37 38
27 1 36 37 38 39
28 1 37 38 39 40
29 1 41 42 43 44
30 1 42 43 44 45
31 1 43 44 45 46
32 1 44 45 46 47
33 1 45 46 47 48
34 1 46 47 48 49
35 1 47 48 49 50

