Lammps Data Files By Teng 

4800 atoms 
4800 bonds 
4800 angles 
4800 dihedrals 
0 impropers 

1 atom types 
2 bond types 
1 angle types 
2 dihedral types 

0 123.387878  xlo xhi 
0 29.520000  ylo yhi 
0 24.720000  zlo zhi 

Masses 

 1  13.0191 

Pair Coeffs 

 1   0.06400   4.010000 

Bond Coeffs 

 1     128.263	2.068	1.368 
 2     100.025	2.032	1.421 

Angle Coeffs 

 1   124.5   83.83	-52.26	23.31 

Dihedral Coeffs 

 1     27.48	-1.32	-49.16	2.54	23.37 
 2     12.70	-1.95	-15.61	3.77	4.68  

Atoms 

 1 1 1 0 2.398000 3.302500 3.258000
 2 1 1 0 3.602000 2.697500 2.742000
 3 1 1 0 4.865758 3.302500 3.258000
 4 1 1 0 6.069758 2.697500 2.742000
 5 1 1 0 7.333515 3.302500 3.258000
 6 1 1 0 8.537515 2.697500 2.742000
 7 1 1 0 9.801273 3.302500 3.258000
 8 1 1 0 11.005273 2.697500 2.742000
 9 1 1 0 12.269030 3.302500 3.258000
 10 1 1 0 13.473030 2.697500 2.742000
 11 1 1 0 14.736788 3.302500 3.258000
 12 1 1 0 15.940788 2.697500 2.742000
 13 1 1 0 17.204545 3.302500 3.258000
 14 1 1 0 18.408545 2.697500 2.742000
 15 1 1 0 19.672303 3.302500 3.258000
 16 1 1 0 20.876303 2.697500 2.742000
 17 1 1 0 22.140060 3.302500 3.258000
 18 1 1 0 23.344060 2.697500 2.742000
 19 1 1 0 24.607818 3.302500 3.258000
 20 1 1 0 25.811818 2.697500 2.742000
 21 1 1 0 27.075575 3.302500 3.258000
 22 1 1 0 28.279575 2.697500 2.742000
 23 1 1 0 29.543333 3.302500 3.258000
 24 1 1 0 30.747333 2.697500 2.742000
 25 1 1 0 32.011091 3.302500 3.258000
 26 1 1 0 33.215091 2.697500 2.742000
 27 1 1 0 34.478848 3.302500 3.258000
 28 1 1 0 35.682848 2.697500 2.742000
 29 1 1 0 36.946606 3.302500 3.258000
 30 1 1 0 38.150606 2.697500 2.742000
 31 1 1 0 39.414363 3.302500 3.258000
 32 1 1 0 40.618363 2.697500 2.742000
 33 1 1 0 41.882121 3.302500 3.258000
 34 1 1 0 43.086121 2.697500 2.742000
 35 1 1 0 44.349878 3.302500 3.258000
 36 1 1 0 45.553878 2.697500 2.742000
 37 1 1 0 46.817636 3.302500 3.258000
 38 1 1 0 48.021636 2.697500 2.742000
 39 1 1 0 49.285393 3.302500 3.258000
 40 1 1 0 50.489393 2.697500 2.742000
 41 1 1 0 51.753151 3.302500 3.258000
 42 1 1 0 52.957151 2.697500 2.742000
 43 1 1 0 54.220909 3.302500 3.258000
 44 1 1 0 55.424909 2.697500 2.742000
 45 1 1 0 56.688666 3.302500 3.258000
 46 1 1 0 57.892666 2.697500 2.742000
 47 1 1 0 59.156424 3.302500 3.258000
 48 1 1 0 60.360424 2.697500 2.742000
 49 1 1 0 61.624181 3.302500 3.258000
 50 1 1 0 62.828181 2.697500 2.742000
 51 1 1 0 64.091939 3.302500 3.258000
 52 1 1 0 65.295939 2.697500 2.742000
 53 1 1 0 66.559696 3.302500 3.258000
 54 1 1 0 67.763696 2.697500 2.742000
 55 1 1 0 69.027454 3.302500 3.258000
 56 1 1 0 70.231454 2.697500 2.742000
 57 1 1 0 71.495211 3.302500 3.258000
 58 1 1 0 72.699211 2.697500 2.742000
 59 1 1 0 73.962969 3.302500 3.258000
 60 1 1 0 75.166969 2.697500 2.742000
 61 1 1 0 76.430726 3.302500 3.258000
 62 1 1 0 77.634726 2.697500 2.742000
 63 1 1 0 78.898484 3.302500 3.258000
 64 1 1 0 80.102484 2.697500 2.742000
 65 1 1 0 81.366242 3.302500 3.258000
 66 1 1 0 82.570242 2.697500 2.742000
 67 1 1 0 83.833999 3.302500 3.258000
 68 1 1 0 85.037999 2.697500 2.742000
 69 1 1 0 86.301757 3.302500 3.258000
 70 1 1 0 87.505757 2.697500 2.742000
 71 1 1 0 88.769514 3.302500 3.258000
 72 1 1 0 89.973514 2.697500 2.742000
 73 1 1 0 91.237272 3.302500 3.258000
 74 1 1 0 92.441272 2.697500 2.742000
 75 1 1 0 93.705029 3.302500 3.258000
 76 1 1 0 94.909029 2.697500 2.742000
 77 1 1 0 96.172787 3.302500 3.258000
 78 1 1 0 97.376787 2.697500 2.742000
 79 1 1 0 98.640544 3.302500 3.258000
 80 1 1 0 99.844544 2.697500 2.742000
 81 1 1 0 101.108302 3.302500 3.258000
 82 1 1 0 102.312302 2.697500 2.742000
 83 1 1 0 103.576060 3.302500 3.258000
 84 1 1 0 104.780060 2.697500 2.742000
 85 1 1 0 106.043817 3.302500 3.258000
 86 1 1 0 107.247817 2.697500 2.742000
 87 1 1 0 108.511575 3.302500 3.258000
 88 1 1 0 109.715575 2.697500 2.742000
 89 1 1 0 110.979332 3.302500 3.258000
 90 1 1 0 112.183332 2.697500 2.742000
 91 1 1 0 113.447090 3.302500 3.258000
 92 1 1 0 114.651090 2.697500 2.742000
 93 1 1 0 115.914847 3.302500 3.258000
 94 1 1 0 117.118847 2.697500 2.742000
 95 1 1 0 118.382605 3.302500 3.258000
 96 1 1 0 119.586605 2.697500 2.742000
 97 1 1 0 120.850362 3.302500 3.258000
 98 1 1 0 122.054362 2.697500 2.742000
 99 1 1 0 123.318120 3.302500 3.258000
 100 1 1 0 124.522120 2.697500 2.742000
 101 3 1 0 2.398000 3.302500 7.378000
 102 3 1 0 3.602000 2.697500 6.862000
 103 3 1 0 4.865758 3.302500 7.378000
 104 3 1 0 6.069758 2.697500 6.862000
 105 3 1 0 7.333515 3.302500 7.378000
 106 3 1 0 8.537515 2.697500 6.862000
 107 3 1 0 9.801273 3.302500 7.378000
 108 3 1 0 11.005273 2.697500 6.862000
 109 3 1 0 12.269030 3.302500 7.378000
 110 3 1 0 13.473030 2.697500 6.862000
 111 3 1 0 14.736788 3.302500 7.378000
 112 3 1 0 15.940788 2.697500 6.862000
 113 3 1 0 17.204545 3.302500 7.378000
 114 3 1 0 18.408545 2.697500 6.862000
 115 3 1 0 19.672303 3.302500 7.378000
 116 3 1 0 20.876303 2.697500 6.862000
 117 3 1 0 22.140060 3.302500 7.378000
 118 3 1 0 23.344060 2.697500 6.862000
 119 3 1 0 24.607818 3.302500 7.378000
 120 3 1 0 25.811818 2.697500 6.862000
 121 3 1 0 27.075575 3.302500 7.378000
 122 3 1 0 28.279575 2.697500 6.862000
 123 3 1 0 29.543333 3.302500 7.378000
 124 3 1 0 30.747333 2.697500 6.862000
 125 3 1 0 32.011091 3.302500 7.378000
 126 3 1 0 33.215091 2.697500 6.862000
 127 3 1 0 34.478848 3.302500 7.378000
 128 3 1 0 35.682848 2.697500 6.862000
 129 3 1 0 36.946606 3.302500 7.378000
 130 3 1 0 38.150606 2.697500 6.862000
 131 3 1 0 39.414363 3.302500 7.378000
 132 3 1 0 40.618363 2.697500 6.862000
 133 3 1 0 41.882121 3.302500 7.378000
 134 3 1 0 43.086121 2.697500 6.862000
 135 3 1 0 44.349878 3.302500 7.378000
 136 3 1 0 45.553878 2.697500 6.862000
 137 3 1 0 46.817636 3.302500 7.378000
 138 3 1 0 48.021636 2.697500 6.862000
 139 3 1 0 49.285393 3.302500 7.378000
 140 3 1 0 50.489393 2.697500 6.862000
 141 3 1 0 51.753151 3.302500 7.378000
 142 3 1 0 52.957151 2.697500 6.862000
 143 3 1 0 54.220909 3.302500 7.378000
 144 3 1 0 55.424909 2.697500 6.862000
 145 3 1 0 56.688666 3.302500 7.378000
 146 3 1 0 57.892666 2.697500 6.862000
 147 3 1 0 59.156424 3.302500 7.378000
 148 3 1 0 60.360424 2.697500 6.862000
 149 3 1 0 61.624181 3.302500 7.378000
 150 3 1 0 62.828181 2.697500 6.862000
 151 3 1 0 64.091939 3.302500 7.378000
 152 3 1 0 65.295939 2.697500 6.862000
 153 3 1 0 66.559696 3.302500 7.378000
 154 3 1 0 67.763696 2.697500 6.862000
 155 3 1 0 69.027454 3.302500 7.378000
 156 3 1 0 70.231454 2.697500 6.862000
 157 3 1 0 71.495211 3.302500 7.378000
 158 3 1 0 72.699211 2.697500 6.862000
 159 3 1 0 73.962969 3.302500 7.378000
 160 3 1 0 75.166969 2.697500 6.862000
 161 3 1 0 76.430726 3.302500 7.378000
 162 3 1 0 77.634726 2.697500 6.862000
 163 3 1 0 78.898484 3.302500 7.378000
 164 3 1 0 80.102484 2.697500 6.862000
 165 3 1 0 81.366242 3.302500 7.378000
 166 3 1 0 82.570242 2.697500 6.862000
 167 3 1 0 83.833999 3.302500 7.378000
 168 3 1 0 85.037999 2.697500 6.862000
 169 3 1 0 86.301757 3.302500 7.378000
 170 3 1 0 87.505757 2.697500 6.862000
 171 3 1 0 88.769514 3.302500 7.378000
 172 3 1 0 89.973514 2.697500 6.862000
 173 3 1 0 91.237272 3.302500 7.378000
 174 3 1 0 92.441272 2.697500 6.862000
 175 3 1 0 93.705029 3.302500 7.378000
 176 3 1 0 94.909029 2.697500 6.862000
 177 3 1 0 96.172787 3.302500 7.378000
 178 3 1 0 97.376787 2.697500 6.862000
 179 3 1 0 98.640544 3.302500 7.378000
 180 3 1 0 99.844544 2.697500 6.862000
 181 3 1 0 101.108302 3.302500 7.378000
 182 3 1 0 102.312302 2.697500 6.862000
 183 3 1 0 103.576060 3.302500 7.378000
 184 3 1 0 104.780060 2.697500 6.862000
 185 3 1 0 106.043817 3.302500 7.378000
 186 3 1 0 107.247817 2.697500 6.862000
 187 3 1 0 108.511575 3.302500 7.378000
 188 3 1 0 109.715575 2.697500 6.862000
 189 3 1 0 110.979332 3.302500 7.378000
 190 3 1 0 112.183332 2.697500 6.862000
 191 3 1 0 113.447090 3.302500 7.378000
 192 3 1 0 114.651090 2.697500 6.862000
 193 3 1 0 115.914847 3.302500 7.378000
 194 3 1 0 117.118847 2.697500 6.862000
 195 3 1 0 118.382605 3.302500 7.378000
 196 3 1 0 119.586605 2.697500 6.862000
 197 3 1 0 120.850362 3.302500 7.378000
 198 3 1 0 122.054362 2.697500 6.862000
 199 3 1 0 123.318120 3.302500 7.378000
 200 3 1 0 124.522120 2.697500 6.862000
 201 5 1 0 2.398000 3.302500 11.498000
 202 5 1 0 3.602000 2.697500 10.982000
 203 5 1 0 4.865758 3.302500 11.498000
 204 5 1 0 6.069758 2.697500 10.982000
 205 5 1 0 7.333515 3.302500 11.498000
 206 5 1 0 8.537515 2.697500 10.982000
 207 5 1 0 9.801273 3.302500 11.498000
 208 5 1 0 11.005273 2.697500 10.982000
 209 5 1 0 12.269030 3.302500 11.498000
 210 5 1 0 13.473030 2.697500 10.982000
 211 5 1 0 14.736788 3.302500 11.498000
 212 5 1 0 15.940788 2.697500 10.982000
 213 5 1 0 17.204545 3.302500 11.498000
 214 5 1 0 18.408545 2.697500 10.982000
 215 5 1 0 19.672303 3.302500 11.498000
 216 5 1 0 20.876303 2.697500 10.982000
 217 5 1 0 22.140060 3.302500 11.498000
 218 5 1 0 23.344060 2.697500 10.982000
 219 5 1 0 24.607818 3.302500 11.498000
 220 5 1 0 25.811818 2.697500 10.982000
 221 5 1 0 27.075575 3.302500 11.498000
 222 5 1 0 28.279575 2.697500 10.982000
 223 5 1 0 29.543333 3.302500 11.498000
 224 5 1 0 30.747333 2.697500 10.982000
 225 5 1 0 32.011091 3.302500 11.498000
 226 5 1 0 33.215091 2.697500 10.982000
 227 5 1 0 34.478848 3.302500 11.498000
 228 5 1 0 35.682848 2.697500 10.982000
 229 5 1 0 36.946606 3.302500 11.498000
 230 5 1 0 38.150606 2.697500 10.982000
 231 5 1 0 39.414363 3.302500 11.498000
 232 5 1 0 40.618363 2.697500 10.982000
 233 5 1 0 41.882121 3.302500 11.498000
 234 5 1 0 43.086121 2.697500 10.982000
 235 5 1 0 44.349878 3.302500 11.498000
 236 5 1 0 45.553878 2.697500 10.982000
 237 5 1 0 46.817636 3.302500 11.498000
 238 5 1 0 48.021636 2.697500 10.982000
 239 5 1 0 49.285393 3.302500 11.498000
 240 5 1 0 50.489393 2.697500 10.982000
 241 5 1 0 51.753151 3.302500 11.498000
 242 5 1 0 52.957151 2.697500 10.982000
 243 5 1 0 54.220909 3.302500 11.498000
 244 5 1 0 55.424909 2.697500 10.982000
 245 5 1 0 56.688666 3.302500 11.498000
 246 5 1 0 57.892666 2.697500 10.982000
 247 5 1 0 59.156424 3.302500 11.498000
 248 5 1 0 60.360424 2.697500 10.982000
 249 5 1 0 61.624181 3.302500 11.498000
 250 5 1 0 62.828181 2.697500 10.982000
 251 5 1 0 64.091939 3.302500 11.498000
 252 5 1 0 65.295939 2.697500 10.982000
 253 5 1 0 66.559696 3.302500 11.498000
 254 5 1 0 67.763696 2.697500 10.982000
 255 5 1 0 69.027454 3.302500 11.498000
 256 5 1 0 70.231454 2.697500 10.982000
 257 5 1 0 71.495211 3.302500 11.498000
 258 5 1 0 72.699211 2.697500 10.982000
 259 5 1 0 73.962969 3.302500 11.498000
 260 5 1 0 75.166969 2.697500 10.982000
 261 5 1 0 76.430726 3.302500 11.498000
 262 5 1 0 77.634726 2.697500 10.982000
 263 5 1 0 78.898484 3.302500 11.498000
 264 5 1 0 80.102484 2.697500 10.982000
 265 5 1 0 81.366242 3.302500 11.498000
 266 5 1 0 82.570242 2.697500 10.982000
 267 5 1 0 83.833999 3.302500 11.498000
 268 5 1 0 85.037999 2.697500 10.982000
 269 5 1 0 86.301757 3.302500 11.498000
 270 5 1 0 87.505757 2.697500 10.982000
 271 5 1 0 88.769514 3.302500 11.498000
 272 5 1 0 89.973514 2.697500 10.982000
 273 5 1 0 91.237272 3.302500 11.498000
 274 5 1 0 92.441272 2.697500 10.982000
 275 5 1 0 93.705029 3.302500 11.498000
 276 5 1 0 94.909029 2.697500 10.982000
 277 5 1 0 96.172787 3.302500 11.498000
 278 5 1 0 97.376787 2.697500 10.982000
 279 5 1 0 98.640544 3.302500 11.498000
 280 5 1 0 99.844544 2.697500 10.982000
 281 5 1 0 101.108302 3.302500 11.498000
 282 5 1 0 102.312302 2.697500 10.982000
 283 5 1 0 103.576060 3.302500 11.498000
 284 5 1 0 104.780060 2.697500 10.982000
 285 5 1 0 106.043817 3.302500 11.498000
 286 5 1 0 107.247817 2.697500 10.982000
 287 5 1 0 108.511575 3.302500 11.498000
 288 5 1 0 109.715575 2.697500 10.982000
 289 5 1 0 110.979332 3.302500 11.498000
 290 5 1 0 112.183332 2.697500 10.982000
 291 5 1 0 113.447090 3.302500 11.498000
 292 5 1 0 114.651090 2.697500 10.982000
 293 5 1 0 115.914847 3.302500 11.498000
 294 5 1 0 117.118847 2.697500 10.982000
 295 5 1 0 118.382605 3.302500 11.498000
 296 5 1 0 119.586605 2.697500 10.982000
 297 5 1 0 120.850362 3.302500 11.498000
 298 5 1 0 122.054362 2.697500 10.982000
 299 5 1 0 123.318120 3.302500 11.498000
 300 5 1 0 124.522120 2.697500 10.982000
 301 7 1 0 2.398000 3.302500 15.618000
 302 7 1 0 3.602000 2.697500 15.102000
 303 7 1 0 4.865758 3.302500 15.618000
 304 7 1 0 6.069758 2.697500 15.102000
 305 7 1 0 7.333515 3.302500 15.618000
 306 7 1 0 8.537515 2.697500 15.102000
 307 7 1 0 9.801273 3.302500 15.618000
 308 7 1 0 11.005273 2.697500 15.102000
 309 7 1 0 12.269030 3.302500 15.618000
 310 7 1 0 13.473030 2.697500 15.102000
 311 7 1 0 14.736788 3.302500 15.618000
 312 7 1 0 15.940788 2.697500 15.102000
 313 7 1 0 17.204545 3.302500 15.618000
 314 7 1 0 18.408545 2.697500 15.102000
 315 7 1 0 19.672303 3.302500 15.618000
 316 7 1 0 20.876303 2.697500 15.102000
 317 7 1 0 22.140060 3.302500 15.618000
 318 7 1 0 23.344060 2.697500 15.102000
 319 7 1 0 24.607818 3.302500 15.618000
 320 7 1 0 25.811818 2.697500 15.102000
 321 7 1 0 27.075575 3.302500 15.618000
 322 7 1 0 28.279575 2.697500 15.102000
 323 7 1 0 29.543333 3.302500 15.618000
 324 7 1 0 30.747333 2.697500 15.102000
 325 7 1 0 32.011091 3.302500 15.618000
 326 7 1 0 33.215091 2.697500 15.102000
 327 7 1 0 34.478848 3.302500 15.618000
 328 7 1 0 35.682848 2.697500 15.102000
 329 7 1 0 36.946606 3.302500 15.618000
 330 7 1 0 38.150606 2.697500 15.102000
 331 7 1 0 39.414363 3.302500 15.618000
 332 7 1 0 40.618363 2.697500 15.102000
 333 7 1 0 41.882121 3.302500 15.618000
 334 7 1 0 43.086121 2.697500 15.102000
 335 7 1 0 44.349878 3.302500 15.618000
 336 7 1 0 45.553878 2.697500 15.102000
 337 7 1 0 46.817636 3.302500 15.618000
 338 7 1 0 48.021636 2.697500 15.102000
 339 7 1 0 49.285393 3.302500 15.618000
 340 7 1 0 50.489393 2.697500 15.102000
 341 7 1 0 51.753151 3.302500 15.618000
 342 7 1 0 52.957151 2.697500 15.102000
 343 7 1 0 54.220909 3.302500 15.618000
 344 7 1 0 55.424909 2.697500 15.102000
 345 7 1 0 56.688666 3.302500 15.618000
 346 7 1 0 57.892666 2.697500 15.102000
 347 7 1 0 59.156424 3.302500 15.618000
 348 7 1 0 60.360424 2.697500 15.102000
 349 7 1 0 61.624181 3.302500 15.618000
 350 7 1 0 62.828181 2.697500 15.102000
 351 7 1 0 64.091939 3.302500 15.618000
 352 7 1 0 65.295939 2.697500 15.102000
 353 7 1 0 66.559696 3.302500 15.618000
 354 7 1 0 67.763696 2.697500 15.102000
 355 7 1 0 69.027454 3.302500 15.618000
 356 7 1 0 70.231454 2.697500 15.102000
 357 7 1 0 71.495211 3.302500 15.618000
 358 7 1 0 72.699211 2.697500 15.102000
 359 7 1 0 73.962969 3.302500 15.618000
 360 7 1 0 75.166969 2.697500 15.102000
 361 7 1 0 76.430726 3.302500 15.618000
 362 7 1 0 77.634726 2.697500 15.102000
 363 7 1 0 78.898484 3.302500 15.618000
 364 7 1 0 80.102484 2.697500 15.102000
 365 7 1 0 81.366242 3.302500 15.618000
 366 7 1 0 82.570242 2.697500 15.102000
 367 7 1 0 83.833999 3.302500 15.618000
 368 7 1 0 85.037999 2.697500 15.102000
 369 7 1 0 86.301757 3.302500 15.618000
 370 7 1 0 87.505757 2.697500 15.102000
 371 7 1 0 88.769514 3.302500 15.618000
 372 7 1 0 89.973514 2.697500 15.102000
 373 7 1 0 91.237272 3.302500 15.618000
 374 7 1 0 92.441272 2.697500 15.102000
 375 7 1 0 93.705029 3.302500 15.618000
 376 7 1 0 94.909029 2.697500 15.102000
 377 7 1 0 96.172787 3.302500 15.618000
 378 7 1 0 97.376787 2.697500 15.102000
 379 7 1 0 98.640544 3.302500 15.618000
 380 7 1 0 99.844544 2.697500 15.102000
 381 7 1 0 101.108302 3.302500 15.618000
 382 7 1 0 102.312302 2.697500 15.102000
 383 7 1 0 103.576060 3.302500 15.618000
 384 7 1 0 104.780060 2.697500 15.102000
 385 7 1 0 106.043817 3.302500 15.618000
 386 7 1 0 107.247817 2.697500 15.102000
 387 7 1 0 108.511575 3.302500 15.618000
 388 7 1 0 109.715575 2.697500 15.102000
 389 7 1 0 110.979332 3.302500 15.618000
 390 7 1 0 112.183332 2.697500 15.102000
 391 7 1 0 113.447090 3.302500 15.618000
 392 7 1 0 114.651090 2.697500 15.102000
 393 7 1 0 115.914847 3.302500 15.618000
 394 7 1 0 117.118847 2.697500 15.102000
 395 7 1 0 118.382605 3.302500 15.618000
 396 7 1 0 119.586605 2.697500 15.102000
 397 7 1 0 120.850362 3.302500 15.618000
 398 7 1 0 122.054362 2.697500 15.102000
 399 7 1 0 123.318120 3.302500 15.618000
 400 7 1 0 124.522120 2.697500 15.102000
 401 9 1 0 2.398000 3.302500 19.738000
 402 9 1 0 3.602000 2.697500 19.222000
 403 9 1 0 4.865758 3.302500 19.738000
 404 9 1 0 6.069758 2.697500 19.222000
 405 9 1 0 7.333515 3.302500 19.738000
 406 9 1 0 8.537515 2.697500 19.222000
 407 9 1 0 9.801273 3.302500 19.738000
 408 9 1 0 11.005273 2.697500 19.222000
 409 9 1 0 12.269030 3.302500 19.738000
 410 9 1 0 13.473030 2.697500 19.222000
 411 9 1 0 14.736788 3.302500 19.738000
 412 9 1 0 15.940788 2.697500 19.222000
 413 9 1 0 17.204545 3.302500 19.738000
 414 9 1 0 18.408545 2.697500 19.222000
 415 9 1 0 19.672303 3.302500 19.738000
 416 9 1 0 20.876303 2.697500 19.222000
 417 9 1 0 22.140060 3.302500 19.738000
 418 9 1 0 23.344060 2.697500 19.222000
 419 9 1 0 24.607818 3.302500 19.738000
 420 9 1 0 25.811818 2.697500 19.222000
 421 9 1 0 27.075575 3.302500 19.738000
 422 9 1 0 28.279575 2.697500 19.222000
 423 9 1 0 29.543333 3.302500 19.738000
 424 9 1 0 30.747333 2.697500 19.222000
 425 9 1 0 32.011091 3.302500 19.738000
 426 9 1 0 33.215091 2.697500 19.222000
 427 9 1 0 34.478848 3.302500 19.738000
 428 9 1 0 35.682848 2.697500 19.222000
 429 9 1 0 36.946606 3.302500 19.738000
 430 9 1 0 38.150606 2.697500 19.222000
 431 9 1 0 39.414363 3.302500 19.738000
 432 9 1 0 40.618363 2.697500 19.222000
 433 9 1 0 41.882121 3.302500 19.738000
 434 9 1 0 43.086121 2.697500 19.222000
 435 9 1 0 44.349878 3.302500 19.738000
 436 9 1 0 45.553878 2.697500 19.222000
 437 9 1 0 46.817636 3.302500 19.738000
 438 9 1 0 48.021636 2.697500 19.222000
 439 9 1 0 49.285393 3.302500 19.738000
 440 9 1 0 50.489393 2.697500 19.222000
 441 9 1 0 51.753151 3.302500 19.738000
 442 9 1 0 52.957151 2.697500 19.222000
 443 9 1 0 54.220909 3.302500 19.738000
 444 9 1 0 55.424909 2.697500 19.222000
 445 9 1 0 56.688666 3.302500 19.738000
 446 9 1 0 57.892666 2.697500 19.222000
 447 9 1 0 59.156424 3.302500 19.738000
 448 9 1 0 60.360424 2.697500 19.222000
 449 9 1 0 61.624181 3.302500 19.738000
 450 9 1 0 62.828181 2.697500 19.222000
 451 9 1 0 64.091939 3.302500 19.738000
 452 9 1 0 65.295939 2.697500 19.222000
 453 9 1 0 66.559696 3.302500 19.738000
 454 9 1 0 67.763696 2.697500 19.222000
 455 9 1 0 69.027454 3.302500 19.738000
 456 9 1 0 70.231454 2.697500 19.222000
 457 9 1 0 71.495211 3.302500 19.738000
 458 9 1 0 72.699211 2.697500 19.222000
 459 9 1 0 73.962969 3.302500 19.738000
 460 9 1 0 75.166969 2.697500 19.222000
 461 9 1 0 76.430726 3.302500 19.738000
 462 9 1 0 77.634726 2.697500 19.222000
 463 9 1 0 78.898484 3.302500 19.738000
 464 9 1 0 80.102484 2.697500 19.222000
 465 9 1 0 81.366242 3.302500 19.738000
 466 9 1 0 82.570242 2.697500 19.222000
 467 9 1 0 83.833999 3.302500 19.738000
 468 9 1 0 85.037999 2.697500 19.222000
 469 9 1 0 86.301757 3.302500 19.738000
 470 9 1 0 87.505757 2.697500 19.222000
 471 9 1 0 88.769514 3.302500 19.738000
 472 9 1 0 89.973514 2.697500 19.222000
 473 9 1 0 91.237272 3.302500 19.738000
 474 9 1 0 92.441272 2.697500 19.222000
 475 9 1 0 93.705029 3.302500 19.738000
 476 9 1 0 94.909029 2.697500 19.222000
 477 9 1 0 96.172787 3.302500 19.738000
 478 9 1 0 97.376787 2.697500 19.222000
 479 9 1 0 98.640544 3.302500 19.738000
 480 9 1 0 99.844544 2.697500 19.222000
 481 9 1 0 101.108302 3.302500 19.738000
 482 9 1 0 102.312302 2.697500 19.222000
 483 9 1 0 103.576060 3.302500 19.738000
 484 9 1 0 104.780060 2.697500 19.222000
 485 9 1 0 106.043817 3.302500 19.738000
 486 9 1 0 107.247817 2.697500 19.222000
 487 9 1 0 108.511575 3.302500 19.738000
 488 9 1 0 109.715575 2.697500 19.222000
 489 9 1 0 110.979332 3.302500 19.738000
 490 9 1 0 112.183332 2.697500 19.222000
 491 9 1 0 113.447090 3.302500 19.738000
 492 9 1 0 114.651090 2.697500 19.222000
 493 9 1 0 115.914847 3.302500 19.738000
 494 9 1 0 117.118847 2.697500 19.222000
 495 9 1 0 118.382605 3.302500 19.738000
 496 9 1 0 119.586605 2.697500 19.222000
 497 9 1 0 120.850362 3.302500 19.738000
 498 9 1 0 122.054362 2.697500 19.222000
 499 9 1 0 123.318120 3.302500 19.738000
 500 9 1 0 124.522120 2.697500 19.222000
 501 11 1 0 2.398000 3.302500 23.858000
 502 11 1 0 3.602000 2.697500 23.342000
 503 11 1 0 4.865758 3.302500 23.858000
 504 11 1 0 6.069758 2.697500 23.342000
 505 11 1 0 7.333515 3.302500 23.858000
 506 11 1 0 8.537515 2.697500 23.342000
 507 11 1 0 9.801273 3.302500 23.858000
 508 11 1 0 11.005273 2.697500 23.342000
 509 11 1 0 12.269030 3.302500 23.858000
 510 11 1 0 13.473030 2.697500 23.342000
 511 11 1 0 14.736788 3.302500 23.858000
 512 11 1 0 15.940788 2.697500 23.342000
 513 11 1 0 17.204545 3.302500 23.858000
 514 11 1 0 18.408545 2.697500 23.342000
 515 11 1 0 19.672303 3.302500 23.858000
 516 11 1 0 20.876303 2.697500 23.342000
 517 11 1 0 22.140060 3.302500 23.858000
 518 11 1 0 23.344060 2.697500 23.342000
 519 11 1 0 24.607818 3.302500 23.858000
 520 11 1 0 25.811818 2.697500 23.342000
 521 11 1 0 27.075575 3.302500 23.858000
 522 11 1 0 28.279575 2.697500 23.342000
 523 11 1 0 29.543333 3.302500 23.858000
 524 11 1 0 30.747333 2.697500 23.342000
 525 11 1 0 32.011091 3.302500 23.858000
 526 11 1 0 33.215091 2.697500 23.342000
 527 11 1 0 34.478848 3.302500 23.858000
 528 11 1 0 35.682848 2.697500 23.342000
 529 11 1 0 36.946606 3.302500 23.858000
 530 11 1 0 38.150606 2.697500 23.342000
 531 11 1 0 39.414363 3.302500 23.858000
 532 11 1 0 40.618363 2.697500 23.342000
 533 11 1 0 41.882121 3.302500 23.858000
 534 11 1 0 43.086121 2.697500 23.342000
 535 11 1 0 44.349878 3.302500 23.858000
 536 11 1 0 45.553878 2.697500 23.342000
 537 11 1 0 46.817636 3.302500 23.858000
 538 11 1 0 48.021636 2.697500 23.342000
 539 11 1 0 49.285393 3.302500 23.858000
 540 11 1 0 50.489393 2.697500 23.342000
 541 11 1 0 51.753151 3.302500 23.858000
 542 11 1 0 52.957151 2.697500 23.342000
 543 11 1 0 54.220909 3.302500 23.858000
 544 11 1 0 55.424909 2.697500 23.342000
 545 11 1 0 56.688666 3.302500 23.858000
 546 11 1 0 57.892666 2.697500 23.342000
 547 11 1 0 59.156424 3.302500 23.858000
 548 11 1 0 60.360424 2.697500 23.342000
 549 11 1 0 61.624181 3.302500 23.858000
 550 11 1 0 62.828181 2.697500 23.342000
 551 11 1 0 64.091939 3.302500 23.858000
 552 11 1 0 65.295939 2.697500 23.342000
 553 11 1 0 66.559696 3.302500 23.858000
 554 11 1 0 67.763696 2.697500 23.342000
 555 11 1 0 69.027454 3.302500 23.858000
 556 11 1 0 70.231454 2.697500 23.342000
 557 11 1 0 71.495211 3.302500 23.858000
 558 11 1 0 72.699211 2.697500 23.342000
 559 11 1 0 73.962969 3.302500 23.858000
 560 11 1 0 75.166969 2.697500 23.342000
 561 11 1 0 76.430726 3.302500 23.858000
 562 11 1 0 77.634726 2.697500 23.342000
 563 11 1 0 78.898484 3.302500 23.858000
 564 11 1 0 80.102484 2.697500 23.342000
 565 11 1 0 81.366242 3.302500 23.858000
 566 11 1 0 82.570242 2.697500 23.342000
 567 11 1 0 83.833999 3.302500 23.858000
 568 11 1 0 85.037999 2.697500 23.342000
 569 11 1 0 86.301757 3.302500 23.858000
 570 11 1 0 87.505757 2.697500 23.342000
 571 11 1 0 88.769514 3.302500 23.858000
 572 11 1 0 89.973514 2.697500 23.342000
 573 11 1 0 91.237272 3.302500 23.858000
 574 11 1 0 92.441272 2.697500 23.342000
 575 11 1 0 93.705029 3.302500 23.858000
 576 11 1 0 94.909029 2.697500 23.342000
 577 11 1 0 96.172787 3.302500 23.858000
 578 11 1 0 97.376787 2.697500 23.342000
 579 11 1 0 98.640544 3.302500 23.858000
 580 11 1 0 99.844544 2.697500 23.342000
 581 11 1 0 101.108302 3.302500 23.858000
 582 11 1 0 102.312302 2.697500 23.342000
 583 11 1 0 103.576060 3.302500 23.858000
 584 11 1 0 104.780060 2.697500 23.342000
 585 11 1 0 106.043817 3.302500 23.858000
 586 11 1 0 107.247817 2.697500 23.342000
 587 11 1 0 108.511575 3.302500 23.858000
 588 11 1 0 109.715575 2.697500 23.342000
 589 11 1 0 110.979332 3.302500 23.858000
 590 11 1 0 112.183332 2.697500 23.342000
 591 11 1 0 113.447090 3.302500 23.858000
 592 11 1 0 114.651090 2.697500 23.342000
 593 11 1 0 115.914847 3.302500 23.858000
 594 11 1 0 117.118847 2.697500 23.342000
 595 11 1 0 118.382605 3.302500 23.858000
 596 11 1 0 119.586605 2.697500 23.342000
 597 11 1 0 120.850362 3.302500 23.858000
 598 11 1 0 122.054362 2.697500 23.342000
 599 11 1 0 123.318120 3.302500 23.858000
 600 11 1 0 124.522120 2.697500 23.342000
 601 13 1 0 2.398000 10.682500 3.258000
 602 13 1 0 3.602000 10.077500 2.742000
 603 13 1 0 4.865758 10.682500 3.258000
 604 13 1 0 6.069758 10.077500 2.742000
 605 13 1 0 7.333515 10.682500 3.258000
 606 13 1 0 8.537515 10.077500 2.742000
 607 13 1 0 9.801273 10.682500 3.258000
 608 13 1 0 11.005273 10.077500 2.742000
 609 13 1 0 12.269030 10.682500 3.258000
 610 13 1 0 13.473030 10.077500 2.742000
 611 13 1 0 14.736788 10.682500 3.258000
 612 13 1 0 15.940788 10.077500 2.742000
 613 13 1 0 17.204545 10.682500 3.258000
 614 13 1 0 18.408545 10.077500 2.742000
 615 13 1 0 19.672303 10.682500 3.258000
 616 13 1 0 20.876303 10.077500 2.742000
 617 13 1 0 22.140060 10.682500 3.258000
 618 13 1 0 23.344060 10.077500 2.742000
 619 13 1 0 24.607818 10.682500 3.258000
 620 13 1 0 25.811818 10.077500 2.742000
 621 13 1 0 27.075575 10.682500 3.258000
 622 13 1 0 28.279575 10.077500 2.742000
 623 13 1 0 29.543333 10.682500 3.258000
 624 13 1 0 30.747333 10.077500 2.742000
 625 13 1 0 32.011091 10.682500 3.258000
 626 13 1 0 33.215091 10.077500 2.742000
 627 13 1 0 34.478848 10.682500 3.258000
 628 13 1 0 35.682848 10.077500 2.742000
 629 13 1 0 36.946606 10.682500 3.258000
 630 13 1 0 38.150606 10.077500 2.742000
 631 13 1 0 39.414363 10.682500 3.258000
 632 13 1 0 40.618363 10.077500 2.742000
 633 13 1 0 41.882121 10.682500 3.258000
 634 13 1 0 43.086121 10.077500 2.742000
 635 13 1 0 44.349878 10.682500 3.258000
 636 13 1 0 45.553878 10.077500 2.742000
 637 13 1 0 46.817636 10.682500 3.258000
 638 13 1 0 48.021636 10.077500 2.742000
 639 13 1 0 49.285393 10.682500 3.258000
 640 13 1 0 50.489393 10.077500 2.742000
 641 13 1 0 51.753151 10.682500 3.258000
 642 13 1 0 52.957151 10.077500 2.742000
 643 13 1 0 54.220909 10.682500 3.258000
 644 13 1 0 55.424909 10.077500 2.742000
 645 13 1 0 56.688666 10.682500 3.258000
 646 13 1 0 57.892666 10.077500 2.742000
 647 13 1 0 59.156424 10.682500 3.258000
 648 13 1 0 60.360424 10.077500 2.742000
 649 13 1 0 61.624181 10.682500 3.258000
 650 13 1 0 62.828181 10.077500 2.742000
 651 13 1 0 64.091939 10.682500 3.258000
 652 13 1 0 65.295939 10.077500 2.742000
 653 13 1 0 66.559696 10.682500 3.258000
 654 13 1 0 67.763696 10.077500 2.742000
 655 13 1 0 69.027454 10.682500 3.258000
 656 13 1 0 70.231454 10.077500 2.742000
 657 13 1 0 71.495211 10.682500 3.258000
 658 13 1 0 72.699211 10.077500 2.742000
 659 13 1 0 73.962969 10.682500 3.258000
 660 13 1 0 75.166969 10.077500 2.742000
 661 13 1 0 76.430726 10.682500 3.258000
 662 13 1 0 77.634726 10.077500 2.742000
 663 13 1 0 78.898484 10.682500 3.258000
 664 13 1 0 80.102484 10.077500 2.742000
 665 13 1 0 81.366242 10.682500 3.258000
 666 13 1 0 82.570242 10.077500 2.742000
 667 13 1 0 83.833999 10.682500 3.258000
 668 13 1 0 85.037999 10.077500 2.742000
 669 13 1 0 86.301757 10.682500 3.258000
 670 13 1 0 87.505757 10.077500 2.742000
 671 13 1 0 88.769514 10.682500 3.258000
 672 13 1 0 89.973514 10.077500 2.742000
 673 13 1 0 91.237272 10.682500 3.258000
 674 13 1 0 92.441272 10.077500 2.742000
 675 13 1 0 93.705029 10.682500 3.258000
 676 13 1 0 94.909029 10.077500 2.742000
 677 13 1 0 96.172787 10.682500 3.258000
 678 13 1 0 97.376787 10.077500 2.742000
 679 13 1 0 98.640544 10.682500 3.258000
 680 13 1 0 99.844544 10.077500 2.742000
 681 13 1 0 101.108302 10.682500 3.258000
 682 13 1 0 102.312302 10.077500 2.742000
 683 13 1 0 103.576060 10.682500 3.258000
 684 13 1 0 104.780060 10.077500 2.742000
 685 13 1 0 106.043817 10.682500 3.258000
 686 13 1 0 107.247817 10.077500 2.742000
 687 13 1 0 108.511575 10.682500 3.258000
 688 13 1 0 109.715575 10.077500 2.742000
 689 13 1 0 110.979332 10.682500 3.258000
 690 13 1 0 112.183332 10.077500 2.742000
 691 13 1 0 113.447090 10.682500 3.258000
 692 13 1 0 114.651090 10.077500 2.742000
 693 13 1 0 115.914847 10.682500 3.258000
 694 13 1 0 117.118847 10.077500 2.742000
 695 13 1 0 118.382605 10.682500 3.258000
 696 13 1 0 119.586605 10.077500 2.742000
 697 13 1 0 120.850362 10.682500 3.258000
 698 13 1 0 122.054362 10.077500 2.742000
 699 13 1 0 123.318120 10.682500 3.258000
 700 13 1 0 124.522120 10.077500 2.742000
 701 15 1 0 2.398000 10.682500 7.378000
 702 15 1 0 3.602000 10.077500 6.862000
 703 15 1 0 4.865758 10.682500 7.378000
 704 15 1 0 6.069758 10.077500 6.862000
 705 15 1 0 7.333515 10.682500 7.378000
 706 15 1 0 8.537515 10.077500 6.862000
 707 15 1 0 9.801273 10.682500 7.378000
 708 15 1 0 11.005273 10.077500 6.862000
 709 15 1 0 12.269030 10.682500 7.378000
 710 15 1 0 13.473030 10.077500 6.862000
 711 15 1 0 14.736788 10.682500 7.378000
 712 15 1 0 15.940788 10.077500 6.862000
 713 15 1 0 17.204545 10.682500 7.378000
 714 15 1 0 18.408545 10.077500 6.862000
 715 15 1 0 19.672303 10.682500 7.378000
 716 15 1 0 20.876303 10.077500 6.862000
 717 15 1 0 22.140060 10.682500 7.378000
 718 15 1 0 23.344060 10.077500 6.862000
 719 15 1 0 24.607818 10.682500 7.378000
 720 15 1 0 25.811818 10.077500 6.862000
 721 15 1 0 27.075575 10.682500 7.378000
 722 15 1 0 28.279575 10.077500 6.862000
 723 15 1 0 29.543333 10.682500 7.378000
 724 15 1 0 30.747333 10.077500 6.862000
 725 15 1 0 32.011091 10.682500 7.378000
 726 15 1 0 33.215091 10.077500 6.862000
 727 15 1 0 34.478848 10.682500 7.378000
 728 15 1 0 35.682848 10.077500 6.862000
 729 15 1 0 36.946606 10.682500 7.378000
 730 15 1 0 38.150606 10.077500 6.862000
 731 15 1 0 39.414363 10.682500 7.378000
 732 15 1 0 40.618363 10.077500 6.862000
 733 15 1 0 41.882121 10.682500 7.378000
 734 15 1 0 43.086121 10.077500 6.862000
 735 15 1 0 44.349878 10.682500 7.378000
 736 15 1 0 45.553878 10.077500 6.862000