..........Options..........
inscript: /Users/zhteg4/test/workspace/d6e31b293894821f0b227e79d393ff72/workspace/6fd1b87409fbb60c6612569e187f59fc/amorp_bldr.in
data_file: amorp_bldr.data
NAME: lammps
JOBNAME: lammps
INTERAC: False
PYTHON: 2
CPU: 1
DEBUG: False
JobStart: 11:04:51 04/27/2025
...........................
Running lammps simulations...
LAMMPS (19 Nov 2024)
  using 1 OpenMP thread(s) per MPI task
Reading data file ...
  orthogonal box = (0 0 0) to (73.9549 73.9549 73.9549)
  1 by 1 by 1 MPI processor grid
  reading atoms ...
  10 atoms
Finding 1-2 1-3 1-4 neighbors ...
  special bond factors lj:    0        0        0.5     
  special bond factors coul:  0        0        0.5     
     0 = max # of 1-2 neighbors
     0 = max # of 1-3 neighbors
     0 = max # of 1-4 neighbors
     1 = max # of special neighbors
  special bonds CPU = 0.000 seconds
  read_data CPU = 0.002 seconds
Generated 0 of 0 mixed pair_coeff terms from geometric mixing rule
Neighbor list info ...
  update: every = 1 steps, delay = 0 steps, check = yes
  max neighbors/atom: 2000, page size: 100000
  master list distance cutoff = 13
  ghost atom cutoff = 13
  binsize = 6.5, bins = 12 12 12
  1 neighbor lists, perpetual/occasional/extra = 1 0 0
  (1) pair lj/cut, perpetual
      attributes: half, newton on
      pair build: half/bin/newton
      stencil: half/bin/3d
      bin: standard
Setting up fire style minimization ...
  Unit style    : real
  Current step  : 0
  Parameters for fire:
    dmax  delaystep dtgrow dtshrink alpha0 alphashrink tmax tmin   integrator   halfstepback   abcfire  
     0.1     20      1.1     0.5     0.25     0.99      10  0.02 eulerimplicit      yes          no     
Per MPI rank memory allocation (min/avg/max) = 6.017 | 6.017 | 6.017 Mbytes
   Step          Temp          E_pair         E_mol          TotEng         Press     
         0   0              0              0              0              0            
         1   0              0              0              0              0            
Loop time of 2.8457e-05 on 1 procs for 1 steps with 10 atoms

80.8% CPU use with 1 MPI tasks x 1 OpenMP threads

Minimization stats:
  Stopping criterion = force tolerance
  Energy initial, next-to-last, final = 
                     0                  0                  0
  Force two-norm initial, final = 0 0
  Force max component initial, final = 0 0
  Final line search alpha, max atom move = 0 0
  Iterations, force evaluations = 1 2

MPI task timing breakdown:
Section |  min time  |  avg time  |  max time  |%varavg| %total
---------------------------------------------------------------
Pair    | 6.54e-07   | 6.54e-07   | 6.54e-07   |   0.0 |  2.30
Bond    | 8.3e-07    | 8.3e-07    | 8.3e-07    |   0.0 |  2.92
Neigh   | 0          | 0          | 0          |   0.0 |  0.00
Comm    | 2.858e-06  | 2.858e-06  | 2.858e-06  |   0.0 | 10.04
Output  | 0          | 0          | 0          |   0.0 |  0.00
Modify  | 0          | 0          | 0          |   0.0 |  0.00
Other   |            | 2.412e-05  |            |       | 84.74

Nlocal:             10 ave          10 max          10 min
Histogram: 1 0 0 0 0 0 0 0 0 0
Nghost:             15 ave          15 max          15 min
Histogram: 1 0 0 0 0 0 0 0 0 0
Neighs:              2 ave           2 max           2 min
Histogram: 1 0 0 0 0 0 0 0 0 0

Total # of neighbors = 2
Ave neighs/atom = 0.2
Ave special neighs/atom = 0
Neighbor list builds = 0
Dangerous builds = 0
Generated 0 of 0 mixed pair_coeff terms from geometric mixing rule
Setting up Verlet run ...
  Unit style    : real
  Current step  : 1
  Time step     : 1
Per MPI rank memory allocation (min/avg/max) = 7.267 | 7.267 | 7.267 Mbytes
   Step          Temp          E_pair         E_mol          TotEng         Press     
         1   300            0              0              8.0481871      0.90955728   
      1000   300.00325     -0.00097044243  0              8.0473037      0.90923844   
      2000   299.99788     -0.0025060246   0              8.0456242      0.90870234   
      3000   299.99729     -0.00084681908  0              8.0472677      0.90926223   
      4000   300.00058     -0.0010527485   0              8.04715        0.90920252   
      5000   299.99982      0              0              8.0481822      0.90955673   
      5001   299.99982      0              0              8.0481823      0.90955673   
Loop time of 0.00493436 on 1 procs for 5000 steps with 10 atoms

Performance: 87549.312 ns/day, 0.000 hours/ns, 1013302.226 timesteps/s, 10.133 Matom-step/s
97.9% CPU use with 1 MPI tasks x 1 OpenMP threads

MPI task timing breakdown:
Section |  min time  |  avg time  |  max time  |%varavg| %total
---------------------------------------------------------------
Pair    | 0.00051924 | 0.00051924 | 0.00051924 |   0.0 | 10.52
Bond    | 0.00032855 | 0.00032855 | 0.00032855 |   0.0 |  6.66
Neigh   | 0.0001312  | 0.0001312  | 0.0001312  |   0.0 |  2.66
Comm    | 0.001039   | 0.001039   | 0.001039   |   0.0 | 21.06
Output  | 0.00017542 | 0.00017542 | 0.00017542 |   0.0 |  3.56
Modify  | 0.0015747  | 0.0015747  | 0.0015747  |   0.0 | 31.91
Other   |            | 0.001166   |            |       | 23.63

Nlocal:             10 ave          10 max          10 min
Histogram: 1 0 0 0 0 0 0 0 0 0
Nghost:             14 ave          14 max          14 min
Histogram: 1 0 0 0 0 0 0 0 0 0
Neighs:              1 ave           1 max           1 min
Histogram: 1 0 0 0 0 0 0 0 0 0

Total # of neighbors = 1
Ave neighs/atom = 0.1
Ave special neighs/atom = 0
Neighbor list builds = 35
Dangerous builds = 0

[Tengs-MacBook-Pro.local:08621] shmem: mmap: an error occurred while determining whether or not /var/folders/bk/wg487n5j7573mcb1vjqqz1j00000gn/T//ompi.Tengs-MacBook-Pro.501/jf.0/1760952320/sm_segment.Tengs-MacBook-Pro.501.68f60000.0 could be created.

Finished.
11:04:51 04/27/2025
