LAMMPS Description # full

19 atoms
8 bonds
7 angles
7 dihedrals
1 impropers

7 atom types
5 bond types
5 angle types
3 dihedral types
1 improper types

0 21.7902 xlo xhi
0 12.4424 ylo yhi
0 12.2056 zlo zhi

Masses

1 15.0350 # C CH3 n-Butane 83 #
2 15.0350 # C CH3 Isobutane 84 #
3 14.0270 # C CH2 n-Butane 86 #
4 15.9990 # O OH Alcohol Hydroxyl 104 #
5 1.0080 # H H Alcohol Hydroxyl 105 #
6 13.0190 # C CH Isopropanol 108 #
7 39.9480 # Ar Argon Atom 211 #

Pair Coeffs

1 0.1750 3.9050
2 0.1600 3.9100
3 0.1180 3.9050
4 0.1700 3.0700
5 0.0000 0.0000
6 0.0800 3.8500
7 0.2340 3.4010

Bond Coeffs

1 260.0000 1.5260
2 260.0000 1.5260
3 260.0000 1.5260
4 553.0000 0.9450
5 386.0000 1.4250

Angle Coeffs

1 63.0000 112.4000
2 63.0000 112.4000
3 63.0000 112.4000
4 55.0000 108.5000
5 80.0000 109.5000

Dihedral Coeffs

1 0.0000 0.0000 4.0000 0.0000
2 0.0000 0.0000 4.0000 0.0000
3 0.0000 0.0000 1.0000 0.0000

Improper Coeffs

1 14.0000 -1 3

Atoms

1 1 1 0.0000 3.5623 4.8321 5.4486
2 1 3 0.0000 3.0817 6.2571 5.7077
3 1 3 0.0000 1.6744 6.5027 5.1712
4 1 3 0.0000 0.5986 5.8707 6.0498
5 1 3 -0.0000 -0.3418 6.9089 6.6551
6 1 6 0.2650 -1.6370 7.0533 5.8612
7 1 2 0.0000 -1.6356 6.2688 4.5523
8 1 4 -0.7000 -2.7881 6.7028 6.6246
9 1 5 0.4350 -3.3328 6.1342 6.1020
10 2 7 0.0000 -2.7238 0.0000 6.1028
11 3 7 0.0000 2.7238 0.0000 6.1028
12 4 7 0.0000 8.1713 0.0000 0.0000
13 5 7 0.0000 13.6189 0.0000 0.0000
14 6 7 0.0000 8.1713 6.2212 6.1028
15 7 7 0.0000 13.6189 6.2212 6.1028
16 8 7 0.0000 8.1713 6.2212 0.0000
17 9 7 0.0000 13.6189 6.2212 0.0000
18 10 7 0.0000 -2.7238 0.0000 0.0000
19 11 7 0.0000 2.7238 0.0000 0.0000

Bonds

1 1 1 2
2 3 2 3
3 3 3 4
4 3 4 5
5 3 5 6
6 2 6 7
7 5 6 8
8 4 8 9

Angles

1 2 1 2 3
2 3 2 3 4
3 3 3 4 5
4 1 4 5 6
5 5 5 6 8
6 5 7 6 8
7 4 6 8 9

Dihedrals

1 1 1 2 3 4
2 1 2 3 4 5
3 1 3 4 5 6
4 1 4 5 6 7
5 2 4 5 6 8
6 3 5 6 8 9
7 3 7 6 8 9

Impropers

1 1 5 7 6 8

