LAMMPS Description

30 atoms
27 bonds
31 angles
30 dihedrals
7 impropers

8 atom types
7 bond types
5 angle types
4 dihedral types
2 improper types

-15.92 24.08 xlo xhi
-17.28 22.72 ylo yhi
-15.44 24.56 zlo zhi

Masses

1 15.035 # CH3 n-Butane C 83
2 15.035 # CH3 Isobutane C 84
3 14.027 # CH2 n-Butane C 86
4 13.019 # CH Isobutane C 88
5 12.011 # C Carboxylic Acid C 133
6 15.999 # =O Carboxylic Acid O 134
7 15.999 # -O- Carboxylic Acid O 135
8 1.008 # H Carboxylic Acid H 136

Pair Coeffs

1 0.175 3.905
2 0.16 3.91
3 0.118 3.905
4 0.08 3.85
5 0.105 3.75
6 0.21 2.96
7 0.17 3.0
8 0.0 0.0

Bond Coeffs

1  570.0 1.229
2  317.0 1.522
3  553.0 0.945
4  450.0 1.364
5  260.0 1.526
6  260.0 1.526
7  260.0 1.526

Angle Coeffs

1 70.0 117.0
2 80.0 126.0
3 35.0 113.0
4 63.0 112.4
5 63.0 112.4

Dihedral Coeffs

1  0.0 0.0 0.0 0.0
2  0.0 1.8 0.0 0.0
3  0.0 0.0 4.0 0.0
4  0.0 0.0 4.0 0.0

Improper Coeffs

1 14.0 -1 3
2 10.5 -1 2

Atoms

1 1 2 0.0000 10.040 5.664 9.900 # CH3 Isobutane C
2 1 4 0.0800 10.559 6.925 9.251 # CH Isobutane C
3 1 5 0.5500 11.642 6.642 8.283 # C Carboxylic Acid C
4 1 6 -0.5000 12.782 7.173 8.466 # =O Carboxylic Acid O
5 1 7 -0.5800 11.487 5.824 7.176 # -O- Carboxylic Acid O
6 1 8 0.4500 12.233 5.535 6.585 # H Carboxylic Acid H
7 1 3 0.0000 9.424 7.692 8.627 # CH2 n-Butane C
8 1 3 0.0800 9.509 7.789 7.142 # CH2 n-Butane C
9 1 5 0.5500 8.621 6.850 6.437 # C Carboxylic Acid C
10 1 6 -0.5000 8.505 7.009 5.179 # =O Carboxylic Acid O
11 1 7 -0.5800 7.931 5.838 7.060 # -O- Carboxylic Acid O
12 1 8 0.4500 7.425 5.185 6.476 # H Carboxylic Acid H
13 2 1 0.0000 -2.657 0.940 8.508 # CH3 n-Butane C
14 2 3 0.0800 -1.145 0.859 8.617 # CH2 n-Butane C
15 2 5 0.5500 -0.711 0.521 10.000 # C Carboxylic Acid C
16 2 6 -0.5000 -0.325 -0.645 10.264 # =O Carboxylic Acid O
17 2 7 -0.5800 -0.709 1.441 11.040 # -O- Carboxylic Acid O
18 2 8 0.4500 0.024 1.437 11.767 # H Carboxylic Acid H
19 3 2 0.0000 0.683 -0.940 1.179 # CH3 Isobutane C
20 3 4 0.0800 1.202 0.321 0.531 # CH Isobutane C
21 3 5 0.5500 2.285 0.038 -0.437 # C Carboxylic Acid C
22 3 6 -0.5000 3.425 0.569 -0.255 # =O Carboxylic Acid O
23 3 7 -0.5800 2.130 -0.780 -1.544 # -O- Carboxylic Acid O
24 3 8 0.4500 2.876 -1.069 -2.135 # H Carboxylic Acid H
25 3 3 0.0000 0.067 1.088 -0.093 # CH2 n-Butane C
26 3 3 0.0800 0.152 1.185 -1.579 # CH2 n-Butane C
27 3 5 0.5500 -0.736 0.246 -2.284 # C Carboxylic Acid C
28 3 6 -0.5000 -0.852 0.405 -3.542 # =O Carboxylic Acid O
29 3 7 -0.5800 -1.426 -0.765 -1.660 # -O- Carboxylic Acid O
30 3 8 0.4500 -1.932 -1.419 -2.245 # H Carboxylic Acid H

Bonds

1 7 1 2
2 2 3 2
3 1 4 3
4 4 5 3
5 3 5 6
6 6 7 8
7 2 9 8
8 1 10 9
9 4 11 9
10 3 11 12
11 7 7 2
12 5 13 14
13 2 15 14
14 1 16 15
15 4 17 15
16 3 17 18
17 7 19 20
18 2 21 20
19 1 22 21
20 4 23 21
21 3 23 24
22 6 25 26
23 2 27 26
24 1 28 27
25 4 29 27
26 3 29 30
27 7 25 20

Angles

1 5 1 2 7
2 5 1 2 3
3 5 7 2 3
4 1 2 3 4
5 1 2 3 5
6 2 4 3 5
7 3 3 5 6
8 4 8 7 2
9 4 7 8 9
10 1 8 9 10
11 1 8 9 11
12 2 10 9 11
13 3 9 11 12
14 4 13 14 15
15 1 14 15 16
16 1 14 15 17
17 2 16 15 17
18 3 15 17 18
19 5 19 20 25
20 5 19 20 21
21 5 25 20 21
22 1 20 21 22
23 1 20 21 23
24 2 22 21 23
25 3 21 23 24
26 4 26 25 20
27 4 25 26 27
28 1 26 27 28
29 1 26 27 29
30 2 28 27 29
31 3 27 29 30

Dihedrals

1 4 1 2 7 8
2 1 1 2 3 4
3 1 1 2 3 5
4 1 7 2 3 4
5 1 7 2 3 5
6 4 3 2 7 8
7 2 2 3 5 6
8 2 4 3 5 6
9 3 2 7 8 9
10 1 7 8 9 10
11 1 7 8 9 11
12 2 8 9 11 12
13 2 10 9 11 12
14 1 13 14 15 16
15 1 13 14 15 17
16 2 14 15 17 18
17 2 16 15 17 18
18 4 19 20 25 26
19 1 19 20 21 22
20 1 19 20 21 23
21 1 25 20 21 22
22 1 25 20 21 23
23 4 21 20 25 26
24 2 20 21 23 24
25 2 22 21 23 24
26 3 20 25 26 27
27 1 25 26 27 28
28 1 25 26 27 29
29 2 26 27 29 30
30 2 28 27 29 30

Impropers

1 1 1 3 2 7
2 2 2 4 3 5
3 2 8 10 9 11
4 2 14 16 15 17
5 1 19 21 20 25
6 2 20 22 21 23
7 2 26 28 27 29

