ITEM: TIMESTEP
0
ITEM: NUMBER OF ATOMS
6
ITEM: BOX BOUNDS pp pp pp
-4.0899999999999999e+00 2.5000000000000000e+00
-2.3999999999999999e-01 6.3499999999999996e+00
-1.5600000000000001e+00 5.0300000000000002e+00
ITEM: ATOMS id xu yu zu
1 0.454 5.074 1.131
2 0.066 4.02 0.099
3 -0.519 2.768 0.747
4 -1.007 3.095 2.155
5 -1.134 1.831 3
6 -2.607 1.529 3.258
ITEM: TIMESTEP
1000
ITEM: NUMBER OF ATOMS
6
ITEM: BOX BOUNDS pp pp pp
-4.0899999999999999e+00 2.5000000000000000e+00
-2.3999999999999999e-01 6.3499999999999996e+00
-1.5600000000000001e+00 5.0300000000000002e+00
ITEM: ATOMS id xu yu zu
1 0.97833 5.0516 0.870468
2 0.159776 4.00331 0.105243
3 -0.223659 2.74985 0.909275
4 -1.31104 2.95491 1.97403
5 -1.63767 1.67202 2.73575
6 -2.7191 1.8797 3.79375
ITEM: TIMESTEP
2000
ITEM: NUMBER OF ATOMS
6
ITEM: BOX BOUNDS pp pp pp
-4.0899999999999999e+00 2.5000000000000000e+00
-2.3999999999999999e-01 6.3499999999999996e+00
-1.5600000000000001e+00 5.0300000000000002e+00
ITEM: ATOMS id xu yu zu
1 1.18073 4.88178 0.936347
2 0.332351 3.87632 0.146459
3 -0.199197 2.68127 0.955373
4 -1.33073 3.00252 1.94261
5 -1.80652 1.7724 2.71287
6 -2.92985 2.09624 3.69543
ITEM: TIMESTEP
2514
ITEM: NUMBER OF ATOMS
6
ITEM: BOX BOUNDS pp pp pp
-4.0899999999999999e+00 2.5000000000000000e+00
-2.3999999999999999e-01 6.3499999999999996e+00
-1.5600000000000001e+00 5.0300000000000002e+00
ITEM: ATOMS id xu yu zu
1 1.24566 4.81067 0.939472
2 0.397256 3.80062 0.155964
3 -0.186444 2.64367 0.984901
4 -1.33704 3.02168 1.92848
5 -1.86571 1.82665 2.71993
6 -3.00673 2.20655 3.6609
ITEM: TIMESTEP
3514
ITEM: NUMBER OF ATOMS
6
ITEM: BOX BOUNDS pp pp pp
-4.0899999999999999e+00 2.5000000000000000e+00
-2.3999999999999999e-01 6.3499999999999996e+00
-1.5600000000000001e+00 5.0300000000000002e+00
ITEM: ATOMS id xu yu zu
1 1.20332 4.89165 1.09471
2 0.42538 3.89438 0.230674
3 -0.138073 2.68408 1.00147
4 -1.34934 2.99183 1.89624
5 -1.82918 1.77064 2.66306
6 -3.05836 2.08049 3.50364
ITEM: TIMESTEP
4514
ITEM: NUMBER OF ATOMS
6
ITEM: BOX BOUNDS pp pp pp
-4.0899999999999999e+00 2.5000000000000000e+00
-2.3999999999999999e-01 6.3499999999999996e+00
-1.5600000000000001e+00 5.0300000000000002e+00
ITEM: ATOMS id xu yu zu
1 1.23394 4.82883 0.919066
2 0.447077 3.74494 0.177129
3 -0.1436 2.63374 1.04681
4 -1.35397 3.02437 1.89984
5 -1.87919 1.84164 2.72424
6 -3.05309 2.23309 3.6265
