LAMMPS Description

6 atoms
5 bonds
4 angles
3 dihedrals
0 impropers

2 atom types
2 bond types
2 angle types
3 dihedral types
0 improper types

-14.08 12.32 xlo xhi
-12.45 13.95 ylo yhi
-11.87 14.53 zlo zhi

Masses

1 15.035 # CH3 n-Butane C 83
2 14.027 # CH2 n-Butane C 86

Pair Coeffs

1 0.175 3.905
2 0.118 3.905

Bond Coeffs

1  260.0 1.526
2  260.0 1.526

Angle Coeffs

1 63.0 112.4
2 63.0 112.4

Dihedral Coeffs

1  0.0 0.0 4.0 0.0
2  0.0 0.0 4.0 0.0
3  0.0 0.0 4.0 0.0

Improper Coeffs


Atoms

1 1 1 0.0000 -3.116 1.474 -0.072
2 1 2 0.0000 -1.692 1.489 0.475
3 1 2 0.0000 -1.072 0.094 0.502
4 1 2 0.0000 0.319 0.159 1.124
5 1 2 0.0000 0.255 -0.036 2.636
6 1 1 0.0000 -0.002 1.304 3.319

Bonds

1 1 1 2
2 2 2 3
3 2 3 4
4 2 4 5
5 1 5 6

Angles

1 1 1 2 3
2 2 2 3 4
3 2 3 4 5
4 1 6 5 4

Dihedrals

1 2 1 2 3 4
2 3 2 3 4 5
3 1 3 4 5 6

