ITEM: TIMESTEP
0
ITEM: NUMBER OF ATOMS
2
ITEM: BOX BOUNDS pp pp pp
-5.7999999999999996e-01 5.2100000000000000e+00
0.0000000000000000e+00 5.7900000000000000e+00
2.3199999999999998e+00 8.1099999999999994e+00
ITEM: ATOMS id xu yu zu
1 4.508 5.313 7.93
2 0.124 0.477 2.492
ITEM: TIMESTEP
90
ITEM: NUMBER OF ATOMS
2
ITEM: BOX BOUNDS pp pp pp
-5.7999999999999996e-01 5.2100000000000000e+00
0.0000000000000000e+00 5.7900000000000000e+00
2.3199999999999998e+00 8.1099999999999994e+00
ITEM: ATOMS id xu yu zu
1 3.83352 5.78842 8.10608
2 0.937431 -0.00163473 2.31605
ITEM: TIMESTEP
1090
ITEM: NUMBER OF ATOMS
2
ITEM: BOX BOUNDS pp pp pp
-5.7999999999999996e-01 5.2100000000000000e+00
0.0000000000000000e+00 5.7900000000000000e+00
2.3199999999999998e+00 8.1099999999999994e+00
ITEM: ATOMS id xu yu zu
1 3.83016 5.79496 8.12479
2 0.942617 -0.0117241 2.2872
ITEM: TIMESTEP
2090
ITEM: NUMBER OF ATOMS
2
ITEM: BOX BOUNDS pp pp pp
-5.7999999999999996e-01 5.2100000000000000e+00
0.0000000000000000e+00 5.7900000000000000e+00
2.3199999999999998e+00 8.1099999999999994e+00
ITEM: ATOMS id xu yu zu
1 3.83812 5.79639 8.12898
2 0.930339 -0.0139371 2.28074
