LAMMPS Description # atomic

8 atoms

1 atom types

0.0000 5.4307 xlo xhi
0.0000 5.4307 ylo yhi
0.0000 5.4307 zlo zhi
0.0000 0.0000 0.0000 xy xz yz

Masses

1 28.086

Atoms

1 1 0.000 0.000 0.000
2 1 0.000 2.715 2.715
3 1 1.358 1.358 1.358
4 1 1.358 4.073 4.073
5 1 2.715 0.000 2.715
6 1 2.715 2.715 0.000
7 1 4.073 1.358 4.073
8 1 4.073 4.073 1.358

