LAMMPS (23 Jun 2022)
OMP_NUM_THREADS environment is not set. Defaulting to 1 thread. (src/comm.cpp:98)
  using 1 OpenMP thread(s) per MPI task
units real
atom_style full
bond_style harmonic
angle_style harmonic
dihedral_style opls
improper_style cvff
pair_style lj/cut/coul/long 11.0 11.0
pair_modify mix geometric
special_bonds lj/coul 0 0 0.5
kspace_style pppm 0.0001
log log.polymer_builder
