LAMMPS Description

1200 atoms
800 bonds
400 angles
0 dihedrals
0 impropers

2 atom types
1 bond types
1 angle types
0 dihedral types
0 improper types

-1.44 27.38 xlo xhi
-1.42 27.40 ylo yhi
-1.59 27.23 zlo zhi

Masses

1 15.999 # O Water (SPC) O 79
2 1.008 # H Water (SPC) H 80

Pair Coeffs

1 0.1554 3.1656
2 0.0000 0.0000

Bond Coeffs

1  527.2 1.0

Angle Coeffs

1 37.95 109.47

Atoms

1 1 1 -0.8200 14.531 11.810 14.229
2 1 2 0.4100 13.803 11.883 14.910
3 1 2 0.4100 14.893 10.888 14.087
4 2 1 -0.8200 25.787 5.447 0.070
5 2 2 0.4100 25.247 6.241 -0.208
6 2 2 0.4100 26.773 5.602 0.138
7 3 1 -0.8200 5.459 -0.118 23.196
8 3 2 0.4100 6.350 -0.312 23.605
9 3 2 0.4100 5.482 0.430 22.360
10 4 1 -0.8200 25.894 23.329 5.986
11 4 2 0.4100 25.128 22.926 5.487
12 4 2 0.4100 26.785 22.907 5.818
13 5 1 -0.8200 8.950 17.336 20.351
14 5 2 0.4100 8.769 16.520 19.802
15 5 2 0.4100 8.216 18.015 20.364
16 6 1 -0.8200 11.561 -0.057 8.295
17 6 2 0.4100 10.806 0.474 8.680
18 6 2 0.4100 12.214 -0.418 8.961
19 7 1 -0.8200 14.309 17.573 8.838
20 7 2 0.4100 14.690 17.662 7.918
21 7 2 0.4100 14.228 16.637 9.180
22 8 1 -0.8200 23.376 0.151 2.863
23 8 2 0.4100 22.646 0.521 3.436
24 8 2 0.4100 23.140 -0.672 2.347
25 9 1 -0.8200 11.203 11.565 -0.144
26 9 2 0.4100 11.339 11.201 0.777
27 9 2 0.4100 12.039 11.815 -0.633
28 10 1 -0.8200 14.668 17.062 26.024
29 10 2 0.4100 14.196 17.622 26.704
30 10 2 0.4100 14.363 17.187 25.080
31 11 1 -0.8200 -0.169 11.218 20.115
32 11 2 0.4100 -0.564 11.947 20.673
33 11 2 0.4100 0.733 11.415 19.729
34 12 1 -0.8200 5.869 22.721 2.810
35 12 2 0.4100 5.819 23.430 2.106
36 12 2 0.4100 5.602 23.011 3.729
37 13 1 -0.8200 20.068 5.663 19.846
38 13 2 0.4100 20.757 6.373 19.993
39 13 2 0.4100 19.692 5.254 20.678
40 14 1 -0.8200 17.343 20.383 14.126
41 14 2 0.4100 16.862 20.696 14.945
42 14 2 0.4100 17.666 19.437 14.155
43 15 1 -0.8200 5.702 8.804 14.095
44 15 2 0.4100 6.134 7.904 14.165
45 15 2 0.4100 5.454 9.228 14.966
46 16 1 -0.8200 2.546 14.413 11.406
47 16 2 0.4100 3.008 15.239 11.730
48 16 2 0.4100 3.091 13.575 11.445
49 17 1 -0.8200 20.008 11.687 6.037
50 17 2 0.4100 20.870 12.025 5.658
51 17 2 0.4100 19.638 10.869 5.595
52 18 1 -0.8200 8.445 11.323 8.858
53 18 2 0.4100 8.126 12.204 8.510
54 18 2 0.4100 9.364 11.055 8.567
55 19 1 -0.8200 3.102 22.780 14.472
56 19 2 0.4100 2.612 22.885 13.606
57 19 2 0.4100 2.932 23.497 15.149
58 20 1 -0.8200 14.338 25.614 23.191
59 20 2 0.4100 15.055 25.759 22.509
60 20 2 0.4100 13.833 26.434 23.462
61 21 1 -0.8200 17.181 5.794 8.983
62 21 2 0.4100 17.204 4.916 8.505
63 21 2 0.4100 17.487 6.581 8.448
64 22 1 -0.8200 14.146 2.991 -0.215
65 22 2 0.4100 15.019 2.653 -0.566
66 22 2 0.4100 14.061 3.001 0.781
67 23 1 -0.8200 2.865 17.596 25.753
68 23 2 0.4100 2.290 17.419 26.552
69 23 2 0.4100 3.490 16.857 25.503
70 24 1 -0.8200 16.999 8.832 26.022
71 24 2 0.4100 17.219 8.590 25.077
72 24 2 0.4100 17.653 8.514 26.708
73 25 1 -0.8200 26.119 26.024 23.347
74 25 2 0.4100 26.457 26.219 22.427
75 25 2 0.4100 25.231 25.565 23.389
76 26 1 -0.8200 22.908 14.404 11.202
77 26 2 0.4100 22.377 14.222 12.030
78 26 2 0.4100 23.877 14.600 11.349
79 27 1 -0.8200 5.769 5.457 5.946
80 27 2 0.4100 4.916 5.898 5.666
81 27 2 0.4100 6.606 5.935 5.678
82 28 1 -0.8200 8.749 5.562 20.448
83 28 2 0.4100 9.326 5.707 19.644
84 28 2 0.4100 7.861 6.021 20.426
85 29 1 -0.8200 20.444 23.242 0.134
86 29 2 0.4100 20.423 22.242 0.152
87 29 2 0.4100 19.649 23.679 -0.286
88 30 1 -0.8200 25.841 3.212 14.315
89 30 2 0.4100 26.156 2.989 15.237
90 30 2 0.4100 25.811 2.444 13.675
91 31 1 -0.8200 25.886 20.179 17.644
92 31 2 0.4100 25.279 20.656 17.009
93 31 2 0.4100 26.643 19.682 17.219
94 32 1 -0.8200 23.324 26.028 11.741
95 32 2 0.4100 23.047 25.076 11.610
96 32 2 0.4100 22.792 26.703 11.229
97 33 1 -0.8200 22.897 14.193 22.818
98 33 2 0.4100 22.388 14.647 23.549
99 33 2 0.4100 23.878 14.387 22.795
100 34 1 -0.8200 0.120 6.003 25.700
101 34 2 0.4100 0.092 6.187 26.682
102 34 2 0.4100 -0.212 5.101 25.425
103 35 1 -0.8200 5.818 8.730 2.540
104 35 2 0.4100 5.865 9.408 3.273
105 35 2 0.4100 5.607 7.797 2.833
106 36 1 -0.8200 17.606 26.088 5.827
107 36 2 0.4100 17.409 25.142 6.083
108 36 2 0.4100 16.857 26.577 5.381
109 37 1 -0.8200 14.573 2.839 17.604
110 37 2 0.4100 14.445 2.084 16.961
111 37 2 0.4100 14.208 3.722 17.306
112 38 1 -0.8200 -0.080 -0.131 8.324
113 38 2 0.4100 0.800 -0.301 8.767
114 38 2 0.4100 -0.720 0.432 8.845
115 39 1 -0.8200 5.753 19.834 14.296
116 39 2 0.4100 6.612 20.329 14.425
117 39 2 0.4100 4.925 20.353 14.505
118 40 1 -0.8200 26.027 14.221 3.171
119 40 2 0.4100 25.085 14.267 2.839
120 40 2 0.4100 26.695 14.739 2.635
121 41 1 -0.8200 0.156 23.168 22.754
122 41 2 0.4100 0.625 22.576 23.410
123 41 2 0.4100 -0.781 23.418 22.997
124 42 1 -0.8200 14.242 14.651 17.090
125 42 2 0.4100 14.056 14.547 18.067
126 42 2 0.4100 14.928 14.028 16.715
127 43 1 -0.8200 11.523 22.713 23.157
128 43 2 0.4100 11.413 22.984 22.201
129 43 2 0.4100 11.646 23.466 23.804
130 44 1 -0.8200 20.246 20.389 2.608
131 44 2 0.4100 20.963 19.950 3.150
132 44 2 0.4100 19.309 20.178 2.887
133 45 1 -0.8200 0.121 20.476 5.622
134 45 2 0.4100 0.710 19.857 6.141
135 45 2 0.4100 -0.831 20.184 5.528
136 46 1 -0.8200 3.178 2.683 17.286
137 46 2 0.4100 2.929 3.288 16.530
138 46 2 0.4100 2.539 2.675 18.056
139 47 1 -0.8200 8.699 26.245 8.476
140 47 2 0.4100 9.394 25.526 8.512
141 47 2 0.4100 7.843 26.036 8.948
142 48 1 -0.8200 17.538 0.022 23.310
143 48 2 0.4100 17.343 0.780 22.688
144 48 2 0.4100 16.991 -0.802 23.164
145 49 1 -0.8200 11.755 17.369 11.264
146 49 2 0.4100 11.544 18.013 11.999
147 49 2 0.4100 11.282 16.489 11.318
148 50 1 -0.8200 5.893 14.189 25.687
149 50 2 0.4100 5.490 13.855 26.539
150 50 2 0.4100 5.908 15.183 25.582
151 51 1 -0.8200 20.485 2.907 8.476
152 51 2 0.4100 19.984 3.711 8.797
153 51 2 0.4100 20.048 2.027 8.663
154 52 1 -0.8200 0.251 8.537 8.416
155 52 2 0.4100 -0.285 9.368 8.268
156 52 2 0.4100 0.034 8.032 9.252
157 53 1 -0.8200 5.745 25.804 19.842
158 53 2 0.4100 6.608 25.873 20.342
159 53 2 0.4100 4.938 26.131 20.333
160 54 1 -0.8200 3.221 0.096 -0.051
161 54 2 0.4100 2.958 -0.617 0.599
162 54 2 0.4100 2.466 0.521 -0.549
163 55 1 -0.8200 17.153 22.726 17.305
164 55 2 0.4100 17.986 22.933 16.793
165 55 2 0.4100 16.733 23.503 17.773
166 56 1 -0.8200 8.295 20.203 0.061
167 56 2 0.4100 8.705 20.432 -0.821
168 56 2 0.4100 8.935 19.882 0.760
169 57 1 -0.8200 14.551 8.851 23.308
170 57 2 0.4100 14.379 7.876 23.445
171 57 2 0.4100 14.296 9.208 22.409
172 58 1 -0.8200 5.806 11.199 22.920
173 58 2 0.4100 6.067 12.022 22.415
174 58 2 0.4100 5.417 11.360 23.827
175 59 1 -0.8200 14.343 8.336 5.928
176 59 2 0.4100 14.705 9.133 6.412
177 59 2 0.4100 14.178 8.467 4.951
178 60 1 -0.8200 23.094 5.739 17.644
179 60 2 0.4100 23.269 6.587 17.143
180 60 2 0.4100 22.799 4.965 17.084
181 61 1 -0.8200 8.302 8.651 17.194
182 61 2 0.4100 9.009 8.222 16.632
183 61 2 0.4100 8.625 9.064 18.046
184 62 1 -0.8200 11.528 20.020 19.850
185 62 2 0.4100 10.683 20.288 20.311
186 62 2 0.4100 12.370 20.209 20.356
187 63 1 -0.8200 11.689 25.944 14.726
188 63 2 0.4100 11.668 25.121 14.159
189 63 2 0.4100 11.224 26.742 14.341
190 64 1 -0.8200 11.362 2.612 2.717
191 64 2 0.4100 11.132 3.569 2.540
192 64 2 0.4100 12.087 2.464 3.389
193 65 1 -0.8200 8.878 14.139 5.765
194 65 2 0.4100 8.100 14.177 6.391
195 65 2 0.4100 8.958 14.911 5.134
196 66 1 -0.8200 25.705 2.799 3.140
197 66 2 0.4100 26.695 2.741 3.269
198 66 2 0.4100 25.408 3.105 2.236
199 67 1 -0.8200 19.986 17.393 23.340
200 67 2 0.4100 19.654 17.533 22.407
201 67 2 0.4100 20.877 16.945 23.415
202 68 1 -0.8200 2.601 17.412 8.462
203 68 2 0.4100 2.541 16.618 9.066
204 68 2 0.4100 3.503 17.841 8.408
205 69 1 -0.8200 5.681 17.010 17.087
206 69 2 0.4100 5.345 17.931 16.891
207 69 2 0.4100 6.265 16.930 17.894
208 70 1 -0.8200 11.432 14.472 2.544
209 70 2 0.4100 12.075 13.748 2.792
210 70 2 0.4100 11.073 15.006 3.310
211 71 1 -0.8200 23.158 25.998 -0.335
212 71 2 0.4100 22.767 26.712 0.245
213 71 2 0.4100 23.237 25.097 0.090
214 72 1 -0.8200 2.836 26.277 2.790
215 72 2 0.4100 2.419 25.525 2.279
216 72 2 0.4100 3.390 26.005 3.576
217 73 1 -0.8200 22.941 22.988 8.977
218 73 2 0.4100 22.353 23.407 8.285
219 73 2 0.4100 23.868 22.768 8.674
220 74 1 -0.8200 11.747 25.715 26.110
221 74 2 0.4100 11.153 25.404 25.367
222 74 2 0.4100 11.681 26.688 26.331
223 75 1 -0.8200 8.598 25.763 17.599
224 75 2 0.4100 9.144 25.385 16.852
225 75 2 0.4100 8.194 26.660 17.421
226 76 1 -0.8200 8.847 8.939 0.006
227 76 2 0.4100 8.675 8.425 -0.834
228 76 2 0.4100 8.413 8.572 0.829
229 77 1 -0.8200 22.740 11.609 25.788
230 77 2 0.4100 23.002 11.927 26.700
231 77 2 0.4100 23.421 11.045 25.320
232 78 1 -0.8200 17.227 11.706 17.592
233 78 2 0.4100 16.992 12.074 16.693
234 78 2 0.4100 17.653 10.801 17.586
235 79 1 -0.8200 14.736 0.074 20.294
236 79 2 0.4100 14.550 -0.082 19.324
237 79 2 0.4100 13.941 0.008 20.898
238 80 1 -0.8200 8.540 14.078 23.135
239 80 2 0.4100 7.937 14.870 23.233
240 80 2 0.4100 9.458 14.279 22.793
241 81 1 -0.8200 20.253 2.881 23.401
242 81 2 0.4100 19.329 2.695 23.066
243 81 2 0.4100 20.935 3.069 22.695
244 82 1 -0.8200 19.893 0.021 11.306
245 82 2 0.4100 19.833 0.280 12.270
246 82 2 0.4100 20.791 -0.300 11.005
247 83 1 -0.8200 26.068 17.114 -0.280
248 83 2 0.4100 25.743 16.647 0.543
249 83 2 0.4100 25.996 18.111 -0.263
250 84 1 -0.8200 8.450 3.172 23.123
251 84 2 0.4100 9.356 3.031 23.521
252 84 2 0.4100 8.130 2.442 22.518
253 85 1 -0.8200 25.718 -0.238 20.020
254 85 2 0.4100 26.075 -0.355 20.947
255 85 2 0.4100 26.014 0.593 19.549
256 86 1 -0.8200 19.903 14.355 8.873
257 86 2 0.4100 20.068 13.757 8.089
258 86 2 0.4100 20.545 15.115 8.974
259 87 1 -0.8200 5.865 6.080 11.398
260 87 2 0.4100 6.512 5.334 11.554
261 87 2 0.4100 4.914 5.877 11.629
262 88 1 -0.8200 19.841 25.978 17.417
263 88 2 0.4100 20.158 26.432 16.584
264 88 2 0.4100 20.517 25.398 17.871
265 89 1 -0.8200 0.220 20.450 20.135
266 89 2 0.4100 -0.292 20.068 19.366
267 89 2 0.4100 0.072 19.999 21.015
268 90 1 -0.8200 17.286 23.018 3.236
269 90 2 0.4100 16.823 23.772 2.770
270 90 2 0.4100 17.762 22.373 2.639
271 91 1 -0.8200 3.020 8.409 5.992
272 91 2 0.4100 2.206 8.212 5.446
273 91 2 0.4100 3.420 9.315 5.852
274 92 1 -0.8200 14.119 23.103 5.965
275 92 2 0.4100 14.456 22.193 5.725
276 92 2 0.4100 14.652 23.867 5.601
277 93 1 -0.8200 25.828 11.295 11.279
278 93 2 0.4100 25.453 12.219 11.344
279 93 2 0.4100 26.527 11.067 11.957
280 94 1 -0.8200 26.120 8.844 17.059
281 94 2 0.4100 26.231 7.852 17.120
282 94 2 0.4100 25.457 9.240 17.693
283 95 1 -0.8200 11.651 8.460 8.367
284 95 2 0.4100 11.647 9.460 8.386
285 95 2 0.4100 11.283 8.016 9.184
286 96 1 -0.8200 17.571 14.629 0.008
287 96 2 0.4100 17.160 14.254 0.839
288 96 2 0.4100 17.141 14.343 -0.848
289 97 1 -0.8200 5.914 17.046 5.975
290 97 2 0.4100 5.942 16.981 4.978
291 97 2 0.4100 5.434 17.845 6.338
292 98 1 -0.8200 25.902 17.040 14.158
293 98 2 0.4100 26.302 16.849 15.054
294 98 2 0.4100 25.603 17.983 14.014
295 99 1 -0.8200 3.159 20.350 23.191
296 99 2 0.4100 3.276 19.577 22.568
297 99 2 0.4100 2.211 20.590 23.403
298 100 1 -0.8200 17.553 3.068 11.374
299 100 2 0.4100 16.743 3.507 11.762
300 100 2 0.4100 17.575 2.071 11.445
301 101 1 -0.8200 19.994 8.448 3.119
302 101 2 0.4100 19.675 8.571 2.180
303 101 2 0.4100 20.848 8.916 3.346
304 102 1 -0.8200 5.604 23.354 11.420
305 102 2 0.4100 5.853 23.193 12.375
306 102 2 0.4100 5.834 22.615 10.787
307 103 1 -0.8200 3.231 5.711 14.461
308 103 2 0.4100 2.746 6.504 14.832
309 103 2 0.4100 2.669 5.075 13.933
310 104 1 -0.8200 22.786 2.680 20.052
311 104 2 0.4100 23.699 2.654 19.645
312 104 2 0.4100 22.677 3.312 20.819
313 105 1 -0.8200 -0.159 11.476 2.567
314 105 2 0.4100 -0.198 12.350 3.051
315 105 2 0.4100 0.357 10.754 3.028
316 106 1 -0.8200 8.314 0.029 5.634
317 106 2 0.4100 8.671 0.647 6.335
318 106 2 0.4100 8.951 -0.676 5.321
319 107 1 -0.8200 22.826 8.597 -0.270
320 107 2 0.4100 23.361 9.435 -0.165
321 107 2 0.4100 22.975 7.904 0.435
322 108 1 -0.8200 8.290 20.182 11.499
323 108 2 0.4100 8.880 20.868 11.072
324 108 2 0.4100 8.766 19.467 12.011
325 109 1 -0.8200 -0.055 0.013 17.643
326 109 2 0.4100 -0.021 -0.850 17.139
327 109 2 0.4100 0.075 0.837 17.090
328 110 1 -0.8200 22.923 16.988 3.018
329 110 2 0.4100 23.863 17.061 2.687
330 110 2 0.4100 22.376 17.822 2.940
331 111 1 -0.8200 20.104 22.736 20.317
332 111 2 0.4100 19.382 23.397 20.116
333 111 2 0.4100 21.031 23.030 20.084
334 112 1 -0.8200 2.542 5.656 25.934
335 112 2 0.4100 3.161 5.488 25.166
336 112 2 0.4100 2.943 6.147 26.707
337 113 1 -0.8200 11.594 5.686 23.395
338 113 2 0.4100 10.857 6.304 23.123
339 113 2 0.4100 12.129 5.300 22.644
340 114 1 -0.8200 2.949 14.495 16.951
341 114 2 0.4100 2.058 14.654 17.377
342 114 2 0.4100 3.638 14.077 17.544
343 115 1 -0.8200 25.944 25.960 9.001
344 115 2 0.4100 26.321 26.672 8.409
345 115 2 0.4100 25.543 25.176 8.526
346 116 1 -0.8200 17.405 8.829 14.692
347 116 2 0.4100 17.390 7.830 14.674
348 116 2 0.4100 17.077 9.277 13.860
349 117 1 -0.8200 26.171 11.259 23.044
350 117 2 0.4100 25.754 11.572 23.897
351 117 2 0.4100 25.883 11.750 22.221
352 118 1 -0.8200 22.814 3.008 5.996
353 118 2 0.4100 23.799 3.100 6.141
354 118 2 0.4100 22.548 2.538 5.154
355 119 1 -0.8200 11.472 0.094 17.630
356 119 2 0.4100 11.942 0.690 16.980
357 119 2 0.4100 11.167 -0.784 17.262
358 120 1 -0.8200 11.497 14.073 14.524
359 120 2 0.4100 12.379 14.481 14.289
360 120 2 0.4100 10.705 14.673 14.414
361 121 1 -0.8200 3.041 11.618 2.576
362 121 2 0.4100 3.523 11.137 3.308
363 121 2 0.4100 2.081 11.826 2.761
364 122 1 -0.8200 17.184 19.887 25.751
365 122 2 0.4100 17.869 20.525 25.400
366 122 2 0.4100 16.819 20.105 26.656
367 123 1 -0.8200 11.555 8.611 19.819
368 123 2 0.4100 12.185 9.175 20.351
369 123 2 0.4100 10.841 8.151 20.347
370 124 1 -0.8200 22.947 11.453 8.977
371 124 2 0.4100 23.070 12.390 8.652
372 124 2 0.4100 23.145 10.738 8.306
373 125 1 -0.8200 20.030 0.048 25.613
374 125 2 0.4100 20.161 -0.860 26.009
375 125 2 0.4100 20.326 0.812 26.186
376 126 1 -0.8200 5.972 22.780 -0.093
377 126 2 0.4100 4.975 22.707 -0.061
378 126 2 0.4100 6.343 23.675 0.155
379 127 1 -0.8200 20.207 14.079 20.040
380 127 2 0.4100 20.943 14.755 19.993
381 127 2 0.4100 19.367 14.392 20.484
382 128 1 -0.8200 5.524 11.268 11.581
383 128 2 0.4100 5.279 12.147 11.171
384 128 2 0.4100 6.487 11.166 11.830
385 129 1 -0.8200 20.442 19.948 8.580
386 129 2 0.4100 19.487 19.696 8.424
387 129 2 0.4100 20.588 20.873 8.932
388 130 1 -0.8200 0.134 25.946 14.078
389 130 2 0.4100 -0.823 25.722 14.261
390 130 2 0.4100 0.690 26.139 14.887
391 131 1 -0.8200 14.340 5.603 3.192
392 131 2 0.4100 13.763 6.335 2.830
393 131 2 0.4100 15.123 5.353 2.622
394 132 1 -0.8200 25.592 22.974 25.885
395 132 2 0.4100 25.955 23.229 26.781
396 132 2 0.4100 26.261 22.959 25.141
397 133 1 -0.8200 14.204 22.909 14.662
398 133 2 0.4100 14.033 23.823 14.296
399 133 2 0.4100 14.989 22.430 14.268
400 134 1 -0.8200 23.294 17.538 14.502
401 134 2 0.4100 23.409 16.958 13.695
402 134 2 0.4100 22.460 17.376 15.030
403 135 1 -0.8200 8.490 0.076 14.097
404 135 2 0.4100 8.490 -0.846 14.485
405 135 2 0.4100 8.956 0.770 14.644
406 136 1 -0.8200 11.737 5.786 11.240
407 136 2 0.4100 10.780 5.501 11.183
408 136 2 0.4100 12.065 6.004 12.159
409 137 1 -0.8200 3.042 14.179 0.221
410 137 2 0.4100 2.055 14.166 0.058
411 137 2 0.4100 3.549 14.881 -0.279
412 138 1 -0.8200 -0.221 11.615 17.025
413 138 2 0.4100 0.682 11.221 16.859
414 138 2 0.4100 -0.461 11.745 17.987
415 139 1 -0.8200 0.256 25.704 26.025
416 139 2 0.4100 0.333 26.683 26.212
417 139 2 0.4100 -0.589 25.420 25.571
418 140 1 -0.8200 0.107 16.968 11.635
419 140 2 0.4100 0.519 17.811 11.981
420 140 2 0.4100 -0.625 17.093 10.965
421 141 1 -0.8200 5.521 2.950 8.393
422 141 2 0.4100 5.680 2.028 8.746
423 141 2 0.4100 6.090 3.667 8.796
424 142 1 -0.8200 0.224 5.897 11.284
425 142 2 0.4100 -0.593 6.388 11.583
426 142 2 0.4100 0.369 5.006 11.714
427 143 1 -0.8200 8.333 11.675 26.023
428 143 2 0.4100 9.157 12.219 25.870
429 143 2 0.4100 8.446 10.687 25.915
430 144 1 -0.8200 2.835 26.238 11.710
431 144 2 0.4100 2.141 25.878 11.088
432 144 2 0.4100 3.669 25.691 11.783
433 145 1 -0.8200 17.590 3.015 26.077
434 145 2 0.4100 17.496 2.832 25.099
435 145 2 0.4100 16.786 2.799 26.632
436 146 1 -0.8200 14.339 14.670 0.233
437 146 2 0.4100 15.154 14.095 0.304
438 146 2 0.4100 13.734 14.462 -0.536
439 147 1 -0.8200 6.022 2.697 25.775
440 147 2 0.4100 6.210 3.357 26.502
441 147 2 0.4100 5.058 2.591 25.531
442 148 1 -0.8200 11.840 0.029 -0.169
443 148 2 0.4100 11.571 0.650 0.567
444 148 2 0.4100 11.171 -0.679 -0.397
445 149 1 -0.8200 19.880 0.012 5.967
446 149 2 0.4100 19.847 0.138 4.976
447 149 2 0.4100 20.790 -0.151 6.347
448 150 1 -0.8200 0.156 8.412 23.274
449 150 2 0.4100 0.094 9.388 23.485
450 150 2 0.4100 -0.250 8.136 22.403
451 151 1 -0.8200 8.790 17.614 2.920
452 151 2 0.4100 7.812 17.448 3.044
453 151 2 0.4100 9.334 16.810 2.681
454 152 1 -0.8200 11.205 17.439 17.258
455 152 2 0.4100 11.441 16.571 16.822
456 152 2 0.4100 11.936 17.862 17.792
457 153 1 -0.8200 8.535 23.365 25.801
458 153 2 0.4100 9.267 23.306 26.479
459 153 2 0.4100 8.133 22.491 25.528
460 154 1 -0.8200 3.002 22.950 20.491
461 154 2 0.4100 2.760 23.900 20.296
462 154 2 0.4100 2.884 22.312 19.730
463 155 1 -0.8200 17.177 17.629 8.638
464 155 2 0.4100 16.612 16.868 8.319
465 155 2 0.4100 18.083 17.375 8.979
466 156 1 -0.8200 11.609 19.891 8.442
467 156 2 0.4100 11.817 20.830 8.166
468 156 2 0.4100 11.155 19.796 9.328
469 157 1 -0.8200 23.165 20.074 -0.324
470 157 2 0.4100 22.890 21.012 -0.114
471 157 2 0.4100 23.108 19.430 0.439
472 158 1 -0.8200 14.064 20.262 23.040
473 158 2 0.4100 14.580 20.257 23.896
474 158 2 0.4100 14.582 19.998 22.226
475 159 1 -0.8200 0.230 20.339 8.860
476 159 2 0.4100 0.146 19.343 8.837
477 159 2 0.4100 -0.376 20.835 8.239
478 160 1 -0.8200 17.024 11.364 2.711
479 160 2 0.4100 16.876 11.916 3.532
480 160 2 0.4100 17.973 11.302 2.402
481 161 1 -0.8200 19.967 8.912 14.526
482 161 2 0.4100 20.518 8.986 13.695
483 161 2 0.4100 20.032 8.038 15.006
484 162 1 -0.8200 26.114 6.064 5.836
485 162 2 0.4100 26.106 5.283 6.460
486 162 2 0.4100 25.588 5.944 4.994
487 163 1 -0.8200 17.396 25.601 20.234
488 163 2 0.4100 16.499 25.940 20.517
489 163 2 0.4100 17.976 26.267 19.765
490 164 1 -0.8200 -0.332 -0.100 2.797
491 164 2 0.4100 -0.022 0.847 2.717
492 164 2 0.4100 0.354 -0.747 3.131
493 165 1 -0.8200 8.291 5.801 2.889
494 165 2 0.4100 8.756 5.261 2.189
495 165 2 0.4100 8.889 6.229 3.567
496 166 1 -0.8200 5.790 14.652 8.386
497 166 2 0.4100 4.967 14.556 8.945
498 166 2 0.4100 6.533 14.019 8.605
499 167 1 -0.8200 22.852 23.157 17.016
500 167 2 0.4100 23.484 23.780 17.476
501 167 2 0.4100 22.827 22.226 17.381
502 168 1 -0.8200 14.441 11.186 20.075
503 168 2 0.4100 13.554 11.645 20.130
504 168 2 0.4100 15.231 11.751 20.312
505 169 1 -0.8200 14.701 8.444 11.489
506 169 2 0.4100 13.999 8.244 12.173
507 169 2 0.4100 14.527 9.247 10.919
508 170 1 -0.8200 5.553 20.391 25.749
509 170 2 0.4100 5.222 19.876 26.539
510 170 2 0.4100 6.516 20.250 25.519
511 171 1 -0.8200 2.990 2.627 -0.224
512 171 2 0.4100 3.447 2.802 0.648
513 171 2 0.4100 2.208 3.216 -0.424
514 172 1 -0.8200 26.288 8.697 8.666
515 172 2 0.4100 25.818 8.000 9.206
516 172 2 0.4100 25.702 9.239 8.063
517 173 1 -0.8200 11.805 22.852 5.668
518 173 2 0.4100 10.937 22.459 5.972
519 173 2 0.4100 11.840 23.851 5.651
520 174 1 -0.8200 14.305 5.449 25.805
521 174 2 0.4100 15.226 5.602 26.163
522 174 2 0.4100 13.695 6.240 25.840
523 175 1 -0.8200 -0.146 17.395 0.308
524 175 2 0.4100 -0.240 17.924 -0.536
525 175 2 0.4100 0.386 16.553 0.228
526 176 1 -0.8200 11.640 11.536 5.425
527 176 2 0.4100 10.814 11.045 5.700
528 176 2 0.4100 12.128 12.000 6.165
529 177 1 -0.8200 8.442 11.814 14.352
530 177 2 0.4100 8.631 11.142 13.636
531 177 2 0.4100 8.863 11.625 15.239
532 178 1 -0.8200 11.236 2.822 20.370
533 178 2 0.4100 11.787 3.652 20.464
534 178 2 0.4100 11.558 2.171 19.683
535 179 1 -0.8200 20.318 25.717 2.640
536 179 2 0.4100 20.841 26.442 3.089
537 179 2 0.4100 19.359 25.648 2.916
538 180 1 -0.8200 5.644 14.085 20.084
539 180 2 0.4100 6.113 14.679 19.430
540 180 2 0.4100 5.534 14.463 21.003
541 181 1 -0.8200 22.925 5.733 14.740
542 181 2 0.4100 22.426 5.401 13.940
543 181 2 0.4100 23.811 6.156 14.547
544 182 1 -0.8200 8.391 2.632 11.525
545 182 2 0.4100 8.658 3.118 12.358
546 182 2 0.4100 8.887 2.896 10.698
547 183 1 -0.8200 19.859 20.167 11.357
548 183 2 0.4100 20.437 20.982 11.385
549 183 2 0.4100 20.221 19.369 11.839
550 184 1 -0.8200 25.924 -0.266 11.289
551 184 2 0.4100 25.536 0.637 11.103
552 184 2 0.4100 26.348 -0.371 12.189
553 185 1 -0.8200 17.222 2.580 14.232
554 185 2 0.4100 16.988 2.699 15.197
555 185 2 0.4100 17.661 3.367 13.798
556 186 1 -0.8200 2.763 8.764 23.369
557 186 2 0.4100 2.461 9.157 22.500
558 186 2 0.4100 3.421 8.015 23.293
559 187 1 -0.8200 -0.030 14.241 14.722
560 187 2 0.4100 -0.379 15.166 14.577
561 187 2 0.4100 0.409 13.819 13.928
562 188 1 -0.8200 0.021 2.855 20.527
563 188 2 0.4100 0.599 2.315 19.916
564 188 2 0.4100 -0.620 3.475 20.074
565 189 1 -0.8200 22.737 14.567 5.799
566 189 2 0.4100 23.597 15.054 5.951
567 189 2 0.4100 22.829 13.605 5.541
568 190 1 -0.8200 22.728 5.895 2.822
569 190 2 0.4100 23.529 6.483 2.933
570 190 2 0.4100 22.905 4.913 2.890
571 191 1 -0.8200 8.396 25.871 -0.247
572 191 2 0.4100 8.992 25.153 0.113
573 191 2 0.4100 8.547 26.783 0.134
574 192 1 -0.8200 11.230 17.459 -0.100
575 192 2 0.4100 11.814 16.973 -0.750
576 192 2 0.4100 11.538 17.439 0.851
577 193 1 -0.8200 14.357 19.935 17.029
578 193 2 0.4100 14.376 19.672 17.994
579 193 2 0.4100 14.493 20.909 16.849
580 194 1 -0.8200 2.728 11.211 20.114
581 194 2 0.4100 2.781 11.621 21.025
582 194 2 0.4100 3.137 11.750 19.378
583 195 1 -0.8200 23.019 19.989 20.476
584 195 2 0.4100 23.261 20.959 20.461
585 195 2 0.4100 22.883 19.568 19.579
586 196 1 -0.8200 17.176 -0.292 8.476
587 196 2 0.4100 18.124 0.021 8.421
588 196 2 0.4100 16.572 0.271 9.039
589 197 1 -0.8200 26.178 8.907 25.946
590 197 2 0.4100 26.432 7.940 25.974
591 197 2 0.4100 25.197 9.089 25.887
592 198 1 -0.8200 14.567 14.219 11.270
593 198 2 0.4100 14.903 15.117 11.555
594 198 2 0.4100 13.756 13.891 11.755
595 199 1 -0.8200 2.808 -0.025 8.993
596 199 2 0.4100 2.906 -0.830 8.407
597 199 2 0.4100 2.931 0.855 8.536
598 200 1 -0.8200 8.814 23.360 8.575
599 200 2 0.4100 8.768 22.611 7.914
600 200 2 0.4100 8.353 23.191 9.446
601 201 1 -0.8200 5.691 6.004 17.037
602 201 2 0.4100 5.801 5.031 16.835
603 201 2 0.4100 5.798 6.255 17.999
604 202 1 -0.8200 19.819 14.450 25.959
605 202 2 0.4100 20.426 14.587 26.742
606 202 2 0.4100 20.272 14.189 25.107
607 203 1 -0.8200 8.803 17.262 14.727
608 203 2 0.4100 9.082 17.943 14.050
609 203 2 0.4100 8.050 16.666 14.449
610 204 1 -0.8200 14.626 25.787 11.767
611 204 2 0.4100 14.878 25.881 10.804
612 204 2 0.4100 13.723 26.140 12.010
613 205 1 -0.8200 17.104 17.017 22.921
614 205 2 0.4100 17.465 17.749 22.343
615 205 2 0.4100 17.303 17.105 23.897
616 206 1 -0.8200 5.652 20.078 3.207
617 206 2 0.4100 5.075 20.592 2.573
618 206 2 0.4100 6.563 19.847 2.865
619 207 1 -0.8200 25.887 14.591 19.870
620 207 2 0.4100 26.392 14.968 20.647
621 207 2 0.4100 25.528 13.667 20.001
622 208 1 -0.8200 5.832 26.097 6.074
623 208 2 0.4100 5.986 26.546 5.194
624 208 2 0.4100 5.473 25.165 6.022
625 209 1 -0.8200 14.459 5.530 14.144
626 209 2 0.4100 14.791 6.472 14.097
627 209 2 0.4100 13.977 5.288 14.986
628 210 1 -0.8200 19.817 17.317 14.395
629 210 2 0.4100 20.358 17.747 15.118
630 210 2 0.4100 20.342 16.808 13.713
631 211 1 -0.8200 2.612 19.966 17.182
632 211 2 0.4100 3.551 19.827 16.867
633 211 2 0.4100 2.483 20.724 17.822
634 212 1 -0.8200 26.083 17.030 19.979
635 212 2 0.4100 26.546 17.438 20.765
636 212 2 0.4100 25.178 17.404 19.773
637 213 1 -0.8200 2.795 25.651 23.250
638 213 2 0.4100 2.235 26.479 23.235
639 213 2 0.4100 3.615 25.678 22.677
640 214 1 -0.8200 17.497 8.727 5.485
641 214 2 0.4100 17.858 8.649 6.414
642 214 2 0.4100 16.516 8.559 5.391
643 215 1 -0.8200 8.698 -0.320 26.083
644 215 2 0.4100 9.279 0.466 26.292
645 215 2 0.4100 7.959 -0.145 25.432
646 216 1 -0.8200 20.139 8.589 17.641
647 216 2 0.4100 19.518 8.180 16.973
648 216 2 0.4100 20.860 9.166 17.257
649 217 1 -0.8200 22.814 0.224 23.194
650 217 2 0.4100 22.875 0.053 22.211
651 217 2 0.4100 23.473 -0.277 23.757
652 218 1 -0.8200 16.938 5.745 23.003
653 218 2 0.4100 17.349 6.367 23.669
654 218 2 0.4100 17.584 5.179 22.490
655 219 1 -0.8200 17.402 19.948 5.510
656 219 2 0.4100 16.610 19.751 6.089
657 219 2 0.4100 17.860 20.818 5.692
658 220 1 -0.8200 11.639 11.411 23.372
659 220 2 0.4100 11.221 12.311 23.248
660 220 2 0.4100 11.722 10.859 22.542
661 221 1 -0.8200 20.450 11.747 -0.042
662 221 2 0.4100 19.808 11.550 -0.783
663 221 2 0.4100 20.259 11.284 0.824
664 222 1 -0.8200 0.295 26.042 -0.169
665 222 2 0.4100 0.165 25.100 0.139
666 222 2 0.4100 -0.461 26.666 0.030
667 223 1 -0.8200 8.901 5.744 8.893
668 223 2 0.4100 9.067 5.511 7.935
669 223 2 0.4100 7.968 6.035 9.107
670 224 1 -0.8200 3.215 8.766 11.563
671 224 2 0.4100 2.985 7.796 11.647
672 224 2 0.4100 2.445 9.374 11.372
673 225 1 -0.8200 20.067 17.052 5.521
674 225 2 0.4100 19.899 18.032 5.415
675 225 2 0.4100 20.551 16.788 6.355
676 226 1 -0.8200 23.332 5.940 8.782
677 226 2 0.4100 23.436 5.263 8.054
678 226 2 0.4100 22.395 6.087 9.100
679 227 1 -0.8200 26.163 23.178 14.654
680 227 2 0.4100 25.367 23.701 14.349
681 227 2 0.4100 26.278 22.283 14.223
682 228 1 -0.8200 3.041 22.744 5.840
683 228 2 0.4100 2.073 22.802 5.595
684 228 2 0.4100 3.531 23.616 5.856
685 229 1 -0.8200 25.775 20.195 26.253
686 229 2 0.4100 25.905 20.991 25.662
687 229 2 0.4100 26.127 19.331 25.893
688 230 1 -0.8200 23.001 25.858 14.065
689 230 2 0.4100 22.348 26.395 14.600
690 230 2 0.4100 23.813 25.554 14.562
691 231 1 -0.8200 11.676 5.636 0.298
692 231 2 0.4100 10.754 5.379 0.010
693 231 2 0.4100 12.151 6.275 -0.308
694 232 1 -0.8200 6.002 2.902 14.673
695 232 2 0.4100 6.144 3.348 13.790
696 232 2 0.4100 5.144 2.396 14.764
697 233 1 -0.8200 22.767 25.818 25.761
698 233 2 0.4100 23.127 26.742 25.635
699 233 2 0.4100 23.268 25.248 26.412
700 234 1 -0.8200 0.032 14.389 6.118
701 234 2 0.4100 -0.381 15.177 5.661
702 234 2 0.4100 0.348 13.660 5.511
703 235 1 -0.8200 17.277 8.809 20.489
704 235 2 0.4100 18.141 8.601 20.030
705 235 2 0.4100 16.453 8.525 19.999
706 236 1 -0.8200 14.543 20.418 3.102
707 236 2 0.4100 15.123 19.785 2.589
708 236 2 0.4100 13.560 20.313 2.954
709 237 1 -0.8200 5.850 23.351 17.467
710 237 2 0.4100 5.044 23.294 16.878
711 237 2 0.4100 6.397 22.517 17.526
712 238 1 -0.8200 8.381 20.231 23.286
713 238 2 0.4100 9.261 19.846 23.564
714 238 2 0.4100 8.294 20.440 22.312
715 239 1 -0.8200 5.704 17.334 22.705
716 239 2 0.4100 4.970 17.382 23.383
717 239 2 0.4100 6.616 17.155 23.074
718 240 1 -0.8200 17.145 23.378 11.557
719 240 2 0.4100 18.074 23.239 11.214
720 240 2 0.4100 16.653 22.545 11.810
721 241 1 -0.8200 14.434 23.340 25.724
722 241 2 0.4100 14.491 23.405 26.720
723 241 2 0.4100 14.301 22.417 25.363
724 242 1 -0.8200 20.257 6.108 11.559
725 242 2 0.4100 20.402 5.451 12.298
726 242 2 0.4100 19.858 5.731 10.723
727 243 1 -0.8200 17.602 0.053 0.165
728 243 2 0.4100 16.776 0.559 0.410
729 243 2 0.4100 17.494 -0.611 -0.575
730 244 1 -0.8200 14.239 25.741 8.399
731 244 2 0.4100 15.222 25.657 8.564
732 244 2 0.4100 13.765 26.409 8.973
733 245 1 -0.8200 11.210 0.151 11.464
734 245 2 0.4100 11.304 -0.812 11.716
735 245 2 0.4100 12.067 0.662 11.401
736 246 1 -0.8200 5.721 8.490 25.618
737 246 2 0.4100 6.606 8.524 26.082
738 246 2 0.4100 4.964 8.922 26.108
739 247 1 -0.8200 23.350 8.690 11.333
740 247 2 0.4100 23.110 7.813 11.749
741 247 2 0.4100 22.702 9.433 11.498
742 248 1 -0.8200 5.408 5.775 -0.027
743 248 2 0.4100 5.876 5.156 0.603
744 248 2 0.4100 6.006 6.360 -0.575
745 249 1 -0.8200 0.292 2.708 14.301
746 249 2 0.4100 -0.568 2.237 14.495
747 249 2 0.4100 0.275 3.700 14.430
748 250 1 -0.8200 17.377 0.320 17.422
749 250 2 0.4100 17.490 -0.524 17.948
750 250 2 0.4100 17.005 0.204 16.502
751 251 1 -0.8200 -0.200 20.354 2.649
752 251 2 0.4100 -0.040 19.371 2.562
753 251 2 0.4100 0.240 20.791 3.434
754 252 1 -0.8200 8.517 0.053 19.844
755 252 2 0.4100 8.046 0.385 20.661
756 252 2 0.4100 9.372 -0.438 20.013
757 253 1 -0.8200 11.228 11.644 17.445
758 253 2 0.4100 11.918 12.267 17.078
759 253 2 0.4100 11.436 10.670 17.348
760 254 1 -0.8200 0.186 3.126 5.945
761 254 2 0.4100 0.006 2.213 6.310
762 254 2 0.4100 -0.192 3.306 5.036
763 255 1 -0.8200 14.701 2.922 5.963
764 255 2 0.4100 14.468 2.054 5.526
765 255 2 0.4100 14.057 3.670 5.802
766 256 1 -0.8200 26.029 11.219 5.610
767 256 2 0.4100 26.602 11.669 6.295
768 256 2 0.4100 25.177 11.693 5.386
769 257 1 -0.8200 17.223 23.053 -0.350
770 257 2 0.4100 16.885 23.772 0.258
771 257 2 0.4100 17.763 22.337 0.092
772 258 1 -0.8200 8.474 0.212 2.652
773 258 2 0.4100 9.440 0.337 2.877
774 258 2 0.4100 8.021 -0.549 3.116
775 259 1 -0.8200 25.692 2.695 23.236
776 259 2 0.4100 26.570 2.303 22.960
777 259 2 0.4100 25.546 3.647 22.966
778 260 1 -0.8200 25.868 20.520 11.485
779 260 2 0.4100 26.512 20.026 10.900
780 260 2 0.4100 25.428 19.972 12.196
781 261 1 -0.8200 20.021 14.673 17.476
782 261 2 0.4100 19.695 13.730 17.529
783 261 2 0.4100 20.801 14.823 16.867
784 262 1 -0.8200 14.742 17.229 20.282
785 262 2 0.4100 14.243 18.061 20.526
786 262 2 0.4100 14.241 16.582 19.708
787 263 1 -0.8200 20.241 0.313 14.565
788 263 2 0.4100 19.315 -0.056 14.494
789 263 2 0.4100 20.961 -0.257 14.168
790 264 1 -0.8200 2.937 11.767 8.388
791 264 2 0.4100 3.610 11.064 8.616
792 264 2 0.4100 2.098 11.750 8.932
793 265 1 -0.8200 0.127 6.082 23.150
794 265 2 0.4100 -0.717 5.980 22.624
795 265 2 0.4100 0.590 5.228 23.388
796 266 1 -0.8200 -0.211 17.180 17.026
797 266 2 0.4100 -0.239 18.116 17.375
798 266 2 0.4100 0.450 16.576 17.471
799 267 1 -0.8200 2.586 0.122 20.015
800 267 2 0.4100 2.563 -0.388 20.875
801 267 2 0.4100 3.497 0.266 19.628
802 268 1 -0.8200 3.164 5.548 20.205
803 268 2 0.4100 2.335 5.430 20.751
804 268 2 0.4100 3.146 6.313 19.561
805 269 1 -0.8200 26.257 11.681 14.420
806 269 2 0.4100 25.992 10.950 15.048