ITEM: TIMESTEP
0
ITEM: NUMBER OF ATOMS
2
ITEM: BOX BOUNDS pp pp pp
-1.8600000000000001e+00 2.7799999999999998e+00
-1.3899999999999999e+00 3.2500000000000000e+00
-1.8600000000000001e+00 2.7799999999999998e+00
ITEM: ATOMS id xu yu zu
1 -0.111 1.073 0.943
2 1.039 0.782 -0.016
ITEM: TIMESTEP
218
ITEM: NUMBER OF ATOMS
2
ITEM: BOX BOUNDS pp pp pp
-1.8600000000000001e+00 2.7799999999999998e+00
-1.3899999999999999e+00 3.2500000000000000e+00
-1.8600000000000001e+00 2.7799999999999998e+00
ITEM: ATOMS id xu yu zu
1 0.0232117 1.36684 0.904286
2 0.904788 0.488158 0.0227145
ITEM: TIMESTEP
1218
ITEM: NUMBER OF ATOMS
2
ITEM: BOX BOUNDS pp pp pp
-1.8600000000000001e+00 2.7799999999999998e+00
-1.3899999999999999e+00 3.2500000000000000e+00
-1.8600000000000001e+00 2.7799999999999998e+00
ITEM: ATOMS id xu yu zu
1 0.0660594 1.37259 0.940605
2 0.861941 0.482411 -0.0136049
ITEM: TIMESTEP
2218
ITEM: NUMBER OF ATOMS
2
ITEM: BOX BOUNDS pp pp pp
-1.8600000000000001e+00 2.7799999999999998e+00
-1.3899999999999999e+00 3.2500000000000000e+00
-1.8600000000000001e+00 2.7799999999999998e+00
ITEM: ATOMS id xu yu zu
1 0.0480524 1.38175 0.917523
2 0.879948 0.473254 0.00947661
