ITEM: TIMESTEP
0
ITEM: NUMBER OF ATOMS
18
ITEM: BOX BOUNDS pp pp pp
-2.3870000000000001e+01 2.4129999999999999e+01
-2.3809999999999999e+01 2.4190000000000001e+01
-2.4340000000000000e+01 2.3660000000000000e+01
ITEM: ATOMS id xu yu zu
1 -2.255 0.578 0.716
2 -1.006 -0.07 1.151
3 -0.518 0.278 2.474
4 0.389 -0.429 2.988
5 -1.034 1.367 3.169
6 -0.656 1.633 4.049
7 -0.002 -0.363 0.124
8 0.952 0.762 -0.186
9 2.213 0.14 -0.669
10 3.175 0.026 0.122
11 2.379 -0.325 -1.965
12 2.942 -1.158 -2.172
13 0.365 1.611 -1.305
14 0.552 0.904 -2.628
15 -0.672 0.179 -3.045
16 -1.25 0.554 -4.093
17 -1.187 -0.877 -2.333
18 -2.032 -1.374 -2.59
ITEM: TIMESTEP
0
ITEM: NUMBER OF ATOMS
18
ITEM: BOX BOUNDS pp pp pp
-2.3870000000000001e+01 2.4129999999999999e+01
-2.3809999999999999e+01 2.4190000000000001e+01
-2.4340000000000000e+01 2.3660000000000000e+01
ITEM: ATOMS id xu yu zu
2 -1.006 -0.07 1.151
1 -2.255 0.578 0.716
14 0.552 0.904 -2.628
3 -0.518 0.278 2.474
4 0.389 -0.429 2.988
5 -1.034 1.367 3.169
6 -0.656 1.633 4.049
7 -0.002 -0.363 0.124
8 0.952 0.762 -0.186
9 2.213 0.14 -0.669
10 3.175 0.026 0.122
11 2.379 -0.325 -1.965
12 2.942 -1.158 -2.172
13 0.365 1.611 -1.305
15 -0.672 0.179 -3.045
16 -1.25 0.554 -4.093
17 -1.187 -0.877 -2.333
18 -2.032 -1.374 -2.59
