ITEM: TIMESTEP
0
ITEM: NUMBER OF ATOMS
18
ITEM: BOX BOUNDS pp pp pp
-2.3870000000000001e+01 2.4129999999999999e+01
-2.3809999999999999e+01 2.4190000000000001e+01
-2.4340000000000000e+01 2.3660000000000000e+01
ITEM: ATOMS id xu yu zu
1 -2.255 0.578 0.716
2 -1.006 -0.07 1.151
3 -0.518 0.278 2.474
4 0.389 -0.429 2.988
5 -1.034 1.367 3.169
6 -0.656 1.633 4.049
7 -0.002 -0.363 0.124
8 0.952 0.762 -0.186
9 2.213 0.14 -0.669
10 3.175 0.026 0.122
11 2.379 -0.325 -1.965
12 2.942 -1.158 -2.172
13 0.365 1.611 -1.305
14 0.552 0.904 -2.628
15 -0.672 0.179 -3.045
16 -1.25 0.554 -4.093
17 -1.187 -0.877 -2.333
18 -2.032 -1.374 -2.59
ITEM: TIMESTEP
213
ITEM: NUMBER OF ATOMS
18
ITEM: BOX BOUNDS pp pp pp
-2.3870000000000001e+01 2.4129999999999999e+01
-2.3809999999999999e+01 2.4190000000000001e+01
-2.4340000000000000e+01 2.3660000000000000e+01
ITEM: ATOMS id xu yu zu
1 -2.27687 0.470724 0.583476
2 -1.12134 -0.341912 1.18615
3 -0.736229 0.27931 2.53596
4 -0.848612 -0.368885 3.56984
5 -0.252229 1.54508 2.64425
6 -0.0851217 1.70886 3.55937
7 0.11121 -0.556686 0.260973
8 1.01651 0.634486 -0.174001
9 2.36162 0.074381 -0.663124
10 3.41271 0.477232 -0.179184
11 2.45315 -0.873341 -1.63259
12 3.3673 -1.08062 -1.74727
13 0.450839 1.64933 -1.21716
14 0.173312 1.2263 -2.68296
15 -1.01756 0.298932 -2.91816
16 -2.15594 0.751356 -2.9529
17 -0.8295 -1.03255 -3.09246
18 -1.66825 -1.42601 -3.27321
ITEM: TIMESTEP
1213
ITEM: NUMBER OF ATOMS
18
ITEM: BOX BOUNDS pp pp pp
-2.3870000000000001e+01 2.4129999999999999e+01
