LAMMPS (19 Nov 2024)
OMP_NUM_THREADS environment is not set. Defaulting to 1 thread. (src/comm.cpp:99)
  using 1 OpenMP thread(s) per MPI task
package gpu 1
units metal
atom_style atomic
pair_style sw
read_data xtal_bldr.data
Reading data file ...
  triclinic box = (0 0 0) to (21.7228 21.7228 21.7228) with tilt (0 0 0)
  1 by 1 by 1 MPI processor grid
  reading atoms ...
  512 atoms
  read_data CPU = 0.001 seconds
pair_coeff * * /home/zhteg4/git/nemd/module/lammps/lammps/potentials/Si.sw Si
Reading sw potential file /home/zhteg4/git/nemd/module/lammps/lammps/potentials/Si.sw with DATE: 2007-06-11
dump 1 all xtc 1000 xtal_bldr.xtc
dump_modify 1 unwrap yes
thermo 1000
thermo_modify flush yes
timestep 0.001
min_style fire
minimize 1.0e-6 1.0e-6 1000 10000

CITE-CITE-CITE-CITE-CITE-CITE-CITE-CITE-CITE-CITE-CITE-CITE-CITE

Your simulation uses code contributions which should be cited:

- GPU package (short-range, long-range and three-body potentials): doi:10.1016/j.cpc.2010.12.021, doi:10.1016/j.cpc.2011.10.012, doi:10.1016/j.cpc.2013.08.002, doi:10.1016/j.commatsci.2014.10.068, doi:10.1016/j.cpc.2016.10.020, doi:10.3233/APC200086

@Article{Brown11,
 author = {W. M. Brown and P. Wang and S. J. Plimpton and A. N. Tharrington},
 title = {Implementing Molecular Dynamics on Hybrid High Performance Computers---Short Range Forces},
 journal = {Comput.\ Phys.\ Commun.},
 year =    2011,
 volume =  182,
 pages =   {898--911},
 doi =     {10.1016/j.cpc.2010.12.021}
}

@Article{Brown12,
 author = {W. M. Brown and A. Kohlmeyer and S. J. Plimpton and A. N. Tharrington},
 title = {Implementing Molecular Dynamics on Hybrid High Performance Computers - Particle-Particle Particle-Mesh},
 journal = {Comput.\ Phys.\ Commun.},
 year =    2012,
 volume =  183,
 doi =     {10.1016/j.cpc.2011.10.012},
 pages =   {449--459}
}

@Article{Brown13,
 author = {W. M. Brown and Y. Masako},
 title = {Implementing Molecular Dynamics on Hybrid High Performance Computers---Three-Body Potentials},
 journal = {Comput.\ Phys.\ Commun.},
 year =    2013,
 volume =  184,
 pages =   {2785--2793},
 doi =     {10.1016/j.cpc.2013.08.002},
}

@Article{Trung15,
 author = {T. D. Nguyen and S. J. Plimpton},
 title = {Accelerating Dissipative Particle Dynamics Simulations for Soft Matter Systems},
 journal = {Comput.\ Mater.\ Sci.},
 year =    2015,
 doi =     {10.1016/j.commatsci.2014.10.068},
 volume =  100,
 pages =   {173--180}
}

@Article{Trung17,
 author = {T. D. Nguyen},
 title = {{GPU}-Accelerated {T}ersoff Potentials for Massively Parallel
    Molecular Dynamics Simulations},
 journal = {Comput.\ Phys.\ Commun.},
 year =    2017,
 doi =     {10.1016/j.cpc.2016.10.020},
 volume =  212,
 pages =   {113--122}
}

@inproceedings{Nikolskiy19,
 author = {V. Nikolskiy and V. Stegailov},
 title = {{GPU} Acceleration of Four-Site Water Models in {LAMMPS}},
 booktitle = {Proceedings of the International Conference on Parallel
    Computing (ParCo 2019), Prague, Czech Republic},
 doi =     {10.3233/APC200086},
 year =    2019
}

CITE-CITE-CITE-CITE-CITE-CITE-CITE-CITE-CITE-CITE-CITE-CITE-CITE

WARNING: Increasing communication cutoff to 9.54236 for GPU pair style (src/GPU/pair_sw_gpu.cpp:224)
  Parameters for fire:
    dmax  delaystep dtgrow dtshrink alpha0 alphashrink tmax tmin   integrator   halfstepback   abcfire  
     0.1     20      1.1     0.5     0.25     0.99      10  0.02 eulerimplicit      yes          no     
Per MPI rank memory allocation (min/avg/max) = 2.419 | 2.419 | 2.419 Mbytes
   Step          Temp          E_pair         E_mol          TotEng         Press     
         0   0             -2220.3389      0             -2220.3389      140.01105    
        22   6.9890872e-05 -2220.3389      0             -2220.3389      140.08125    
Loop time of 0.00199528 on 1 procs for 22 steps with 512 atoms

100.0% CPU use with 1 MPI tasks x 1 OpenMP threads

Minimization stats:
  Stopping criterion = energy tolerance
  Energy initial, next-to-last, final = 
     -2220.33889430117  -2220.33893491204  -2220.33886341498
  Force two-norm initial, final = 0.025930434 0.0022514501
  Force max component initial, final = 0.00094566697 0.00013668988
  Final line search alpha, max atom move = 0 0
  Iterations, force evaluations = 22 23

MPI task timing breakdown:
Section |  min time  |  avg time  |  max time  |%varavg| %total
---------------------------------------------------------------
Pair    | 0.001584   | 0.001584   | 0.001584   |   0.0 | 79.39
Neigh   | 0          | 0          | 0          |   0.0 |  0.00
Comm    | 0.00020198 | 0.00020198 | 0.00020198 |   0.0 | 10.12
Output  | 0          | 0          | 0          |   0.0 |  0.00
Modify  | 6.23e-07   | 6.23e-07   | 6.23e-07   |   0.0 |  0.03
Other   |            | 0.0002087  |            |       | 10.46

Nlocal:            512 ave         512 max         512 min
Histogram: 1 0 0 0 0 0 0 0 0 0
Nghost:           3223 ave        3223 max        3223 min
Histogram: 1 0 0 0 0 0 0 0 0 0
Neighs:              0 ave           0 max           0 min
Histogram: 1 0 0 0 0 0 0 0 0 0

Total # of neighbors = 0
Ave neighs/atom = 0
Neighbor list builds = 0
Dangerous builds = 0
velocity all create 10 928759161
fix 0a all nvt temp 10 10 0.1
run 1000
Per MPI rank memory allocation (min/avg/max) = 2.463 | 2.463 | 2.463 Mbytes
   Step          Temp          E_pair         E_mol          TotEng         Press     
        22   10            -2220.3389      0             -2219.6783      208.94402    
      1000   10.510075     -2219.7741      0             -2219.0799      258.04269    
      1022   8.6993404     -2219.6594      0             -2219.0848      256.88099    
Loop time of 0.0768018 on 1 procs for 1000 steps with 512 atoms

Performance: 1124.974 ns/day, 0.021 hours/ns, 13020.535 timesteps/s, 6.667 Matom-step/s
100.0% CPU use with 1 MPI tasks x 1 OpenMP threads

MPI task timing breakdown:
Section |  min time  |  avg time  |  max time  |%varavg| %total
---------------------------------------------------------------
Pair    | 0.06183    | 0.06183    | 0.06183    |   0.0 | 80.51
Neigh   | 0          | 0          | 0          |   0.0 |  0.00
Comm    | 0.0084173  | 0.0084173  | 0.0084173  |   0.0 | 10.96
Output  | 4.1605e-05 | 4.1605e-05 | 4.1605e-05 |   0.0 |  0.05
Modify  | 0.0047983  | 0.0047983  | 0.0047983  |   0.0 |  6.25
Other   |            | 0.001714   |            |       |  2.23

Nlocal:            512 ave         512 max         512 min
Histogram: 1 0 0 0 0 0 0 0 0 0
Nghost:           3223 ave        3223 max        3223 min
Histogram: 1 0 0 0 0 0 0 0 0 0
Neighs:              0 ave           0 max           0 min
Histogram: 1 0 0 0 0 0 0 0 0 0

Total # of neighbors = 0
Ave neighs/atom = 0
Neighbor list builds = 0
Dangerous builds = 0
unfix 0a

fix 1a all nvt temp 10 300.0 0.1
run 50000
Per MPI rank memory allocation (min/avg/max) = 2.463 | 2.463 | 2.463 Mbytes
   Step          Temp          E_pair         E_mol          TotEng         Press     
      1022   8.6993404     -2219.6594      0             -2219.0848      256.88291    
      2000   16.782106     -2219.4156      0             -2218.3071      328.77006    
      3000   22.169368     -2219.0373      0             -2217.5729      408.00905    
      4000   23.576085     -2218.3684      0             -2216.8111      474.28319    
      5000   32.659423     -2218.1976      0             -2216.0403      514.98732    
      6000   36.61332      -2217.6799      0             -2215.2616      608.54448    
      7000   44.380296     -2217.3134      0             -2214.382       644.76215    
      8000   50.336616     -2217.0805      0             -2213.7556      760.58512    
      9000   49.767482     -2216.3209      0             -2213.0337      811.53695    
     10000   56.555374     -2216.1632      0             -2212.4276      870.71895    
     11000   60.904761     -2215.3559      0             -2211.3331      991.10678    
     12000   70.831198     -2215.3373      0             -2210.6587      990.4379     
     13000   84.375835     -2215.2979      0             -2209.7247      1192.6521    
     14000   80.296145     -2214.1018      0             -2208.7981      1145.5795    
     15000   96.209273     -2214.7066      0             -2208.3518      1289.7027    
     16000   104.60618     -2214.5229      0             -2207.6135      1333.1574    
     17000   105.16043     -2213.5586      0             -2206.6125      1407.4845    
     18000   92.29344      -2212.4104      0             -2206.3143      1336.0265    
     19000   130.90032     -2213.8774      0             -2205.2311      1574.2296    
     20000   103.91987     -2211.5392      0             -2204.6751      1463.5608    
     21000   123.75426     -2212.0868      0             -2203.9126      1595.61      
     22000   116.85735     -2211.1011      0             -2203.3824      1617.9149    
     23000   144.99949     -2211.3868      0             -2201.8093      1802.2562    
     24000   133.53282     -2210.3941      0             -2201.5739      1888.3476    
     25000   157.3445      -2210.681       0             -2200.2881      2049.6905    
     26000   155.01998     -2209.6333      0             -2199.3939      2067.7915    
     27000   148.09852     -2210.2359      0             -2200.4537      2030.1776    
     28000   170.20271     -2209.3154      0             -2198.0732      2063.3376    
     29000   146.83524     -2208.4294      0             -2198.7306      2038.3974    
     30000   179.10131     -2208.4669      0             -2196.6369      2415.7274    
     31000   181.91589     -2207.9935      0             -2195.9776      2370.2087    
     32000   183.4543      -2207.1898      0             -2195.0723      2320.1999    
     33000   207.80285     -2207.3974      0             -2193.6716      2722.3541    
     34000   221.60063     -2207.8059      0             -2193.1688      2619.7923    
     35000   202.50431     -2206.5687      0             -2193.1929      2567.4452    
     36000   213.66494     -2205.3195      0             -2191.2065      2894.0087    
     37000   249.77144     -2206.8915      0             -2190.3937      2874.192     
     38000   235.22765     -2205.4342      0             -2189.897       2899.71      
     39000   216.00515     -2204.8242      0             -2190.5566      2909.6501    
     40000   255.58599     -2205.6367      0             -2188.7547      2980.0541    
     41000   225.3456      -2204.0117      0             -2189.1271      2949.8234    
     42000   263.97331     -2204.1306      0             -2186.6946      3133.4772    
     43000   248.72352     -2203.8279      0             -2187.3992      3117.9803    
     44000   257.17239     -2202.5001      0             -2185.5134      3126.06      
     45000   237.25246     -2201.6033      0             -2185.9323      3019.2369    
     46000   288.92139     -2202.3206      0             -2183.2368      3451.1821    
     47000   274.41227     -2202.8709      0             -2184.7455      3523.0099    
     48000   264.43034     -2200.3807      0             -2182.9146      3323.6633    
     49000   278.10023     -2200.6013      0             -2182.2322      3369.763     
     50000   292.30983     -2200.232       0             -2180.9244      3627.948     
     51000   300.44133     -2201.7274      0             -2181.8826      3514.9196    
     51022   266.77367     -2199.6401      0             -2182.0192      3320.614     
Loop time of 3.93147 on 1 procs for 50000 steps with 512 atoms

Performance: 1098.824 ns/day, 0.022 hours/ns, 12717.873 timesteps/s, 6.512 Matom-step/s
99.1% CPU use with 1 MPI tasks x 1 OpenMP threads

MPI task timing breakdown:
Section |  min time  |  avg time  |  max time  |%varavg| %total
---------------------------------------------------------------
Pair    | 3.1922     | 3.1922     | 3.1922     |   0.0 | 81.20
Neigh   | 0          | 0          | 0          |   0.0 |  0.00
Comm    | 0.42398    | 0.42398    | 0.42398    |   0.0 | 10.78
Output  | 0.0018526  | 0.0018526  | 0.0018526  |   0.0 |  0.05
Modify  | 0.22849    | 0.22849    | 0.22849    |   0.0 |  5.81
Other   |            | 0.08498    |            |       |  2.16

Nlocal:            512 ave         512 max         512 min
Histogram: 1 0 0 0 0 0 0 0 0 0
Nghost:           3223 ave        3223 max        3223 min
Histogram: 1 0 0 0 0 0 0 0 0 0
Neighs:              0 ave           0 max           0 min
Histogram: 1 0 0 0 0 0 0 0 0 0

Total # of neighbors = 0
Ave neighs/atom = 0
Neighbor list builds = 0
Dangerous builds = 0
unfix 1a

fix 2a all nvt temp 300.0 300.0 0.1
run 50000
Per MPI rank memory allocation (min/avg/max) = 2.463 | 2.463 | 2.463 Mbytes
   Step          Temp          E_pair         E_mol          TotEng         Press     
     51022   266.77367     -2199.6401      0             -2182.0192      3320.611     
     52000   305.75877     -2199.6853      0             -2179.4893      3725.9314    
     53000   276.18883     -2200.5009      0             -2182.258       3660.0434    
     54000   321.98998     -2201.8787      0             -2180.6106      3739.7813    
     55000   294.81492     -2198.3808      0             -2178.9077      3674.1886    
     56000   285.55358     -2199.9366      0             -2181.0753      3612.8164    
     57000   312.33919     -2200.3912      0             -2179.7606      3747.7186    
     58000   290.99574     -2199.5588      0             -2180.338       3663.8686    
     59000   280.73995     -2200.9672      0             -2182.4238      3400.9649    
     60000   293.05997     -2199.5842      0             -2180.2271      3467.4636    
     61000   286.97932     -2200.9797      0             -2182.0242      3508.2765    
     62000   282.98498     -2199.302       0             -2180.6103      3502.6942    
     63000   305.16924     -2199.6105      0             -2179.4535      3679.2686    
     64000   294.74528     -2200.8052      0             -2181.3367      3527.5252    
     65000   307.45351     -2200.8792      0             -2180.5713      3758.8901    
     66000   299.31705     -2200.1326      0             -2180.3622      3696.7493    
     67000   280.19821     -2201.1389      0             -2182.6313      3340.3109    
     68000   320.81417     -2201.433       0             -2180.2426      3921.9919    
     69000   307.59254     -2200.5299      0             -2180.2128      3811.1752    
     70000   289.19363     -2201.0127      0             -2181.9109      3567.8801    
     71000   317.44125     -2201.1437      0             -2180.1761      3775.0533    
     72000   290.46557     -2200.5723      0             -2181.3865      3640.6726    
     73000   303.94352     -2200.3511      0             -2180.275       3686.4379    
     74000   290.07136     -2201.1298      0             -2181.97        3467.9763    
     75000   301.42874     -2199.8406      0             -2179.9306      3605.5784    
     76000   290.76021     -2200.9641      0             -2181.7588      3563.3309    
     77000   308.28894     -2200.5096      0             -2180.1465      3695.5192    
     78000   298.14036     -2199.1931      0             -2179.5003      3826.7746    
     79000   312.77881     -2201.2384      0             -2180.5788      3757.4991    
     80000   307.40884     -2200.7847      0             -2180.4798      3744.0194    
     81000   291.42594     -2198.7753      0             -2179.526       3873.0722    
     82000   301.11223     -2200.8583      0             -2180.9692      3656.8803    
     83000   320.83164     -2199.8354      0             -2178.6438      3950.852     
     84000   311.26569     -2201.1938      0             -2180.6341      3671.495     
     85000   302.79473     -2199.5155      0             -2179.5153      3615.1415    
     86000   287.57018     -2201.3452      0             -2182.3507      3501.9652    
     87000   319.87648     -2201.9703      0             -2180.8418      3684.6323    
     88000   326.20485     -2199.0597      0             -2177.5132      3886.277     
     89000   309.97819     -2201.1145      0             -2180.6398      3701.5941    
     90000   296.13736     -2199.2015      0             -2179.641       3737.3683    
     91000   313.2622      -2200.7752      0             -2180.0836      3687.2512    
     92000   309.70306     -2200.5692      0             -2180.1127      3887.1089    
     93000   303.97849     -2200.7534      0             -2180.675       3657.4484    
     94000   312.44247     -2200.3512      0             -2179.7138      3811.4764    
     95000   288.15061     -2201.3603      0             -2182.3274      3506.0551    
     96000   308.10637     -2200.1724      0             -2179.8214      3687.1382    
     97000   299.83124     -2200.8952      0             -2181.0908      3665.091     
     98000   286.91633     -2200.4093      0             -2181.4579      3575.8104    
     99000   313.39869     -2199.5068      0             -2178.8063      3781.131     
    100000   303.93319     -2200.4461      0             -2180.3708      3622.6935    
    101000   298.38185     -2200.5331      0             -2180.8244      3502.3154    
    101022   294.49716     -2200.3203      0             -2180.8682      3690.3166    
Loop time of 4.29419 on 1 procs for 50000 steps with 512 atoms

Performance: 1006.011 ns/day, 0.024 hours/ns, 11643.648 timesteps/s, 5.962 Matom-step/s
99.5% CPU use with 1 MPI tasks x 1 OpenMP threads

MPI task timing breakdown:
Section |  min time  |  avg time  |  max time  |%varavg| %total
---------------------------------------------------------------
Pair    | 3.5122     | 3.5122     | 3.5122     |   0.0 | 81.79
Neigh   | 0          | 0          | 0          |   0.0 |  0.00
Comm    | 0.43494    | 0.43494    | 0.43494    |   0.0 | 10.13
Output  | 0.0027338  | 0.0027338  | 0.0027338  |   0.0 |  0.06
Modify  | 0.25359    | 0.25359    | 0.25359    |   0.0 |  5.91
Other   |            | 0.09074    |            |       |  2.11

Nlocal:            512 ave         512 max         512 min
Histogram: 1 0 0 0 0 0 0 0 0 0
Nghost:           3045 ave        3045 max        3045 min
Histogram: 1 0 0 0 0 0 0 0 0 0
Neighs:              0 ave           0 max           0 min
Histogram: 1 0 0 0 0 0 0 0 0 0

Total # of neighbors = 0
Ave neighs/atom = 0
Neighbor list builds = 0
Dangerous builds = 0
unfix 2a

shell mkdir loop
shell cd loop

variable loop_id loop 0 999 pad
label start_lb
print "loop_id=${loop_id}"
loop_id=000
fix 3a all ave/time 1 20 20 c_thermo_press file ${loop_id}
fix 3a all ave/time 1 20 20 c_thermo_press file 000
fix 3b all nvt temp 300.0 300.0 0.1
run 1000
Per MPI rank memory allocation (min/avg/max) = 2.463 | 2.463 | 2.463 Mbytes
   Step          Temp          E_pair         E_mol          TotEng         Press     
    101022   294.49716     -2200.3203      0             -2180.8682      3690.3188    
    102000   305.25891     -2198.5236      0             -2178.3607      3750.4781    
    102022   318.63808     -2199.1844      0             -2178.1378      3925.0451    
Loop time of 0.0986994 on 1 procs for 1000 steps with 512 atoms

Performance: 875.385 ns/day, 0.027 hours/ns, 10131.770 timesteps/s, 5.187 Matom-step/s
99.0% CPU use with 1 MPI tasks x 1 OpenMP threads

MPI task timing breakdown:
Section |  min time  |  avg time  |  max time  |%varavg| %total
---------------------------------------------------------------
Pair    | 0.08299    | 0.08299    | 0.08299    |   0.0 | 84.08
Neigh   | 0          | 0          | 0          |   0.0 |  0.00
Comm    | 0.0078779  | 0.0078779  | 0.0078779  |   0.0 |  7.98
Output  | 4.509e-05  | 4.509e-05  | 4.509e-05  |   0.0 |  0.05
Modify  | 0.0061452  | 0.0061452  | 0.0061452  |   0.0 |  6.23
Other   |            | 0.001641   |            |       |  1.66

Nlocal:            512 ave         512 max         512 min
Histogram: 1 0 0 0 0 0 0 0 0 0
Nghost:           3013 ave        3013 max        3013 min
Histogram: 1 0 0 0 0 0 0 0 0 0
Neighs:              0 ave           0 max           0 min
Histogram: 1 0 0 0 0 0 0 0 0 0

Total # of neighbors = 0
Ave neighs/atom = 0
Neighbor list builds = 0
Dangerous builds = 0
unfix 3a
unfix 3b

variable fac python getBdryFac
python getBdryFac input 2 1 ${loop_id} return v_fac format fsf here "from nemd.lmpfunc import getBdryFac"
python getBdryFac input 2 1 000 return v_fac format fsf here "from nemd.lmpfunc import getBdryFac"
print "fac=${fac}"
fac=1.00166389657931
fix 4a all deform 10 x scale ${fac} y scale ${fac} z scale ${fac}
fix 4a all deform 10 x scale 1.00166389657931 y scale ${fac} z scale ${fac}
fix 4a all deform 10 x scale 1.00166389657931 y scale 1.00166389657931 z scale ${fac}
fix 4a all deform 10 x scale 1.00166389657931 y scale 1.00166389657931 z scale 1.00166389657931
fix 4b all nvt temp 300.0 300.0 0.1
run 500
Per MPI rank memory allocation (min/avg/max) = 2.463 | 2.463 | 2.463 Mbytes
   Step          Temp          E_pair         E_mol          TotEng         Press          Volume    
    102022   318.63808     -2199.1844      0             -2178.1378      3925.0412      10250.556    
    102522   303.08408     -2199.9385      0             -2179.9192     -1230.423       10301.603    
Loop time of 0.0420042 on 1 procs for 500 steps with 512 atoms

Performance: 1028.470 ns/day, 0.023 hours/ns, 11903.584 timesteps/s, 6.095 Matom-step/s
100.0% CPU use with 1 MPI tasks x 1 OpenMP threads

MPI task timing breakdown:
Section |  min time  |  avg time  |  max time  |%varavg| %total
---------------------------------------------------------------
Pair    | 0.034799   | 0.034799   | 0.034799   |   0.0 | 82.85
Neigh   | 0          | 0          | 0          |   0.0 |  0.00
Comm    | 0.003983   | 0.003983   | 0.003983   |   0.0 |  9.48
Output  | 1.275e-05  | 1.275e-05  | 1.275e-05  |   0.0 |  0.03
Modify  | 0.0023528  | 0.0023528  | 0.0023528  |   0.0 |  5.60
Other   |            | 0.0008567  |            |       |  2.04

Nlocal:            512 ave         512 max         512 min
Histogram: 1 0 0 0 0 0 0 0 0 0
Nghost:           3051 ave        3051 max        3051 min
Histogram: 1 0 0 0 0 0 0 0 0 0
Neighs:              0 ave           0 max           0 min
Histogram: 1 0 0 0 0 0 0 0 0 0

Total # of neighbors = 0
Ave neighs/atom = 0
Neighbor list builds = 0
Dangerous builds = 0
unfix 4a
unfix 4b

fix 5a all nvt temp 300.0 300.0 0.1
run 500
Per MPI rank memory allocation (min/avg/max) = 2.463 | 2.463 | 2.463 Mbytes
   Step          Temp          E_pair         E_mol          TotEng         Press     
    102522   303.08408     -2199.9385      0             -2179.9192     -1230.4242    
    103000   296.3963      -2200.1912      0             -2180.6137     -1446.5194    
    103022   280.75997     -2199.0273      0             -2180.4826     -1434.1773    
Loop time of 0.0418056 on 1 procs for 500 steps with 512 atoms

Performance: 1033.355 ns/day, 0.023 hours/ns, 11960.127 timesteps/s, 6.124 Matom-step/s
95.3% CPU use with 1 MPI tasks x 1 OpenMP threads

MPI task timing breakdown:
Section |  min time  |  avg time  |  max time  |%varavg| %total
---------------------------------------------------------------
Pair    | 0.034721   | 0.034721   | 0.034721   |   0.0 | 83.05
Neigh   | 0          | 0          | 0          |   0.0 |  0.00
Comm    | 0.0038825  | 0.0038825  | 0.0038825  |   0.0 |  9.29
Output  | 4.5395e-05 | 4.5395e-05 | 4.5395e-05 |   0.0 |  0.11
Modify  | 0.0023576  | 0.0023576  | 0.0023576  |   0.0 |  5.64
Other   |            | 0.0007988  |            |       |  1.91

Nlocal:            512 ave         512 max         512 min
Histogram: 1 0 0 0 0 0 0 0 0 0
Nghost:           2963 ave        2963 max        2963 min
Histogram: 1 0 0 0 0 0 0 0 0 0
Neighs:              0 ave           0 max           0 min
Histogram: 1 0 0 0 0 0 0 0 0 0

Total # of neighbors = 0
Ave neighs/atom = 0
Neighbor list builds = 0
Dangerous builds = 0
unfix 5a

if "${fac} == 1" then "jump SELF break_lb"
next loop_id
jump SELF start_lb
print "loop_id=${loop_id}"
loop_id=001
fix 3a all ave/time 1 20 20 c_thermo_press file ${loop_id}
fix 3a all ave/time 1 20 20 c_thermo_press file 001
fix 3b all nvt temp 300.0 300.0 0.1
run 1000
Per MPI rank memory allocation (min/avg/max) = 2.463 | 2.463 | 2.463 Mbytes
   Step          Temp          E_pair         E_mol          TotEng         Press     
    103022   280.75997     -2199.0273      0             -2180.4826     -1434.175     
    104000   290.19492     -2201.1591      0             -2181.9911     -1410.3814    
    104022   302.42212     -2201.1975      0             -2181.2219     -1379.5886    
Loop time of 0.0960154 on 1 procs for 1000 steps with 512 atoms

Performance: 899.856 ns/day, 0.027 hours/ns, 10415.001 timesteps/s, 5.332 Matom-step/s
100.0% CPU use with 1 MPI tasks x 1 OpenMP threads

MPI task timing breakdown:
Section |  min time  |  avg time  |  max time  |%varavg| %total
---------------------------------------------------------------
Pair    | 0.080699   | 0.080699   | 0.080699   |   0.0 | 84.05
Neigh   | 0          | 0          | 0          |   0.0 |  0.00
Comm    | 0.0075901  | 0.0075901  | 0.0075901  |   0.0 |  7.91
Output  | 4.9824e-05 | 4.9824e-05 | 4.9824e-05 |   0.0 |  0.05
Modify  | 0.0060985  | 0.0060985  | 0.0060985  |   0.0 |  6.35
Other   |            | 0.001578   |            |       |  1.64

Nlocal:            512 ave         512 max         512 min
Histogram: 1 0 0 0 0 0 0 0 0 0
Nghost:           2896 ave        2896 max        2896 min
Histogram: 1 0 0 0 0 0 0 0 0 0
Neighs:              0 ave           0 max           0 min
Histogram: 1 0 0 0 0 0 0 0 0 0

Total # of neighbors = 0
Ave neighs/atom = 0
Neighbor list builds = 0
Dangerous builds = 0
unfix 3a
unfix 3b

variable fac python getBdryFac
python getBdryFac input 2 1 ${loop_id} return v_fac format fsf here "from nemd.lmpfunc import getBdryFac"
python getBdryFac input 2 1 001 return v_fac format fsf here "from nemd.lmpfunc import getBdryFac"
print "fac=${fac}"
fac=0.998330547813691
fix 4a all deform 10 x scale ${fac} y scale ${fac} z scale ${fac}
fix 4a all deform 10 x scale 0.998330547813691 y scale ${fac} z scale ${fac}
fix 4a all deform 10 x scale 0.998330547813691 y scale 0.998330547813691 z scale ${fac}
fix 4a all deform 10 x scale 0.998330547813691 y scale 0.998330547813691 z scale 0.998330547813691
fix 4b all nvt temp 300.0 300.0 0.1
run 500
Per MPI rank memory allocation (min/avg/max) = 2.463 | 2.463 | 2.463 Mbytes
   Step          Temp          E_pair         E_mol          TotEng         Press          Volume    
    104022   302.42212     -2201.1974      0             -2181.2219     -1379.5895      10301.603    
    104522   302.2657      -2200.0569      0             -2180.0917      3787.4433      10250.301    
Loop time of 0.0421666 on 1 procs for 500 steps with 512 atoms

Performance: 1024.507 ns/day, 0.023 hours/ns, 11857.719 timesteps/s, 6.071 Matom-step/s
100.0% CPU use with 1 MPI tasks x 1 OpenMP threads

MPI task timing breakdown:
Section |  min time  |  avg time  |  max time  |%varavg| %total
---------------------------------------------------------------
Pair    | 0.034872   | 0.034872   | 0.034872   |   0.0 | 82.70
Neigh   | 0          | 0          | 0          |   0.0 |  0.00
Comm    | 0.0039226  | 0.0039226  | 0.0039226  |   0.0 |  9.30
Output  | 1.3313e-05 | 1.3313e-05 | 1.3313e-05 |   0.0 |  0.03
Modify  | 0.0024818  | 0.0024818  | 0.0024818  |   0.0 |  5.89
Other   |            | 0.0008769  |            |       |  2.08

Nlocal:            512 ave         512 max         512 min
Histogram: 1 0 0 0 0 0 0 0 0 0
Nghost:           2993 ave        2993 max        2993 min
Histogram: 1 0 0 0 0 0 0 0 0 0
Neighs:              0 ave           0 max           0 min
Histogram: 1 0 0 0 0 0 0 0 0 0

Total # of neighbors = 0
Ave neighs/atom = 0
Neighbor list builds = 0
Dangerous builds = 0
unfix 4a
unfix 4b

fix 5a all nvt temp 300.0 300.0 0.1
run 500
Per MPI rank memory allocation (min/avg/max) = 2.463 | 2.463 | 2.463 Mbytes
   Step          Temp          E_pair         E_mol          TotEng         Press     
    104522   302.2657      -2200.0569      0             -2180.0917      3787.4491    
    105000   296.07994     -2200.2121      0             -2180.6554      3789.6394    
    105022   291.09388     -2199.5385      0             -2180.3112      3632.5883    
Loop time of 0.0420801 on 1 procs for 500 steps with 512 atoms

Performance: 1026.614 ns/day, 0.023 hours/ns, 11882.105 timesteps/s, 6.084 Matom-step/s
97.7% CPU use with 1 MPI tasks x 1 OpenMP threads

MPI task timing breakdown:
Section |  min time  |  avg time  |  max time  |%varavg| %total
---------------------------------------------------------------
Pair    | 0.034857   | 0.034857   | 0.034857   |   0.0 | 82.84
Neigh   | 0          | 0          | 0          |   0.0 |  0.00
Comm    | 0.0040064  | 0.0040064  | 0.0040064  |   0.0 |  9.52
Output  | 4.6839e-05 | 4.6839e-05 | 4.6839e-05 |   0.0 |  0.11
Modify  | 0.0023419  | 0.0023419  | 0.0023419  |   0.0 |  5.57
Other   |            | 0.0008278  |            |       |  1.97

Nlocal:            512 ave         512 max         512 min
Histogram: 1 0 0 0 0 0 0 0 0 0
Nghost:           3045 ave        3045 max        3045 min
Histogram: 1 0 0 0 0 0 0 0 0 0
Neighs:              0 ave           0 max           0 min
Histogram: 1 0 0 0 0 0 0 0 0 0

Total # of neighbors = 0
Ave neighs/atom = 0
Neighbor list builds = 0
Dangerous builds = 0
unfix 5a

if "${fac} == 1" then "jump SELF break_lb"
next loop_id
jump SELF start_lb
print "loop_id=${loop_id}"
loop_id=002
fix 3a all ave/time 1 20 20 c_thermo_press file ${loop_id}
fix 3a all ave/time 1 20 20 c_thermo_press file 002
fix 3b all nvt temp 300.0 300.0 0.1
run 1000
Per MPI rank memory allocation (min/avg/max) = 2.463 | 2.463 | 2.463 Mbytes
   Step          Temp          E_pair         E_mol          TotEng         Press     
    105022   291.09388     -2199.5385      0             -2180.3112      3632.585     
    106000   287.576       -2201.5923      0             -2182.5974      3556.9113    
    106022   288.06421     -2201.5423      0             -2182.5151      3526.387     
Loop time of 0.0991497 on 1 procs for 1000 steps with 512 atoms

Performance: 871.409 ns/day, 0.028 hours/ns, 10085.754 timesteps/s, 5.164 Matom-step/s
98.1% CPU use with 1 MPI tasks x 1 OpenMP threads

MPI task timing breakdown:
Section |  min time  |  avg time  |  max time  |%varavg| %total
---------------------------------------------------------------
Pair    | 0.083504   | 0.083504   | 0.083504   |   0.0 | 84.22
Neigh   | 0          | 0          | 0          |   0.0 |  0.00
Comm    | 0.0078501  | 0.0078501  | 0.0078501  |   0.0 |  7.92
Output  | 4.6881e-05 | 4.6881e-05 | 4.6881e-05 |   0.0 |  0.05
Modify  | 0.00611    | 0.00611    | 0.00611    |   0.0 |  6.16
Other   |            | 0.001639   |            |       |  1.65

Nlocal:            512 ave         512 max         512 min
Histogram: 1 0 0 0 0 0 0 0 0 0
Nghost:           3001 ave        3001 max        3001 min
Histogram: 1 0 0 0 0 0 0 0 0 0
Neighs:              0 ave           0 max           0 min
Histogram: 1 0 0 0 0 0 0 0 0 0

Total # of neighbors = 0
Ave neighs/atom = 0
Neighbor list builds = 0
Dangerous builds = 0
unfix 3a
unfix 3b

variable fac python getBdryFac
python getBdryFac input 2 1 ${loop_id} return v_fac format fsf here "from nemd.lmpfunc import getBdryFac"
python getBdryFac input 2 1 002 return v_fac format fsf here "from nemd.lmpfunc import getBdryFac"
print "fac=${fac}"
fac=1.00166389657931
fix 4a all deform 10 x scale ${fac} y scale ${fac} z scale ${fac}
fix 4a all deform 10 x scale 1.00166389657931 y scale ${fac} z scale ${fac}
fix 4a all deform 10 x scale 1.00166389657931 y scale 1.00166389657931 z scale ${fac}
fix 4a all deform 10 x scale 1.00166389657931 y scale 1.00166389657931 z scale 1.00166389657931
fix 4b all nvt temp 300.0 300.0 0.1
run 500
Per MPI rank memory allocation (min/avg/max) = 2.463 | 2.463 | 2.463 Mbytes
   Step          Temp          E_pair         E_mol          TotEng         Press          Volume    
    106022   288.06421     -2201.5423      0             -2182.5151      3526.3828      10250.301    
    106522   278.06929     -2199.5034      0             -2181.1363     -1272.5924      10301.347    
Loop time of 0.0420329 on 1 procs for 500 steps with 512 atoms

Performance: 1027.766 ns/day, 0.023 hours/ns, 11895.440 timesteps/s, 6.090 Matom-step/s
100.0% CPU use with 1 MPI tasks x 1 OpenMP threads

MPI task timing breakdown:
Section |  min time  |  avg time  |  max time  |%varavg| %total
---------------------------------------------------------------
Pair    | 0.034797   | 0.034797   | 0.034797   |   0.0 | 82.79
Neigh   | 0          | 0          | 0          |   0.0 |  0.00
Comm    | 0.0039071  | 0.0039071  | 0.0039071  |   0.0 |  9.30
Output  | 1.2497e-05 | 1.2497e-05 | 1.2497e-05 |   0.0 |  0.03
Modify  | 0.002458   | 0.002458   | 0.002458   |   0.0 |  5.85
Other   |            | 0.0008582  |            |       |  2.04

Nlocal:            512 ave         512 max         512 min
Histogram: 1 0 0 0 0 0 0 0 0 0
Nghost:           2995 ave        2995 max        2995 min
Histogram: 1 0 0 0 0 0 0 0 0 0
Neighs:              0 ave           0 max           0 min
Histogram: 1 0 0 0 0 0 0 0 0 0

Total # of neighbors = 0
Ave neighs/atom = 0
Neighbor list builds = 0
Dangerous builds = 0
unfix 4a
unfix 4b

fix 5a all nvt temp 300.0 300.0 0.1
run 500
Per MPI rank memory allocation (min/avg/max) = 2.463 | 2.463 | 2.463 Mbytes
   Step          Temp          E_pair         E_mol          TotEng         Press     
    106522   278.06929     -2199.5034      0             -2181.1363     -1272.5956    
    107000   290.65819     -2200.3037      0             -2181.1051     -1274.9363    
    107022   285.81094     -2200.0578      0             -2181.1794     -1388.4049    
Loop time of 0.0420149 on 1 procs for 500 steps with 512 atoms

Performance: 1028.205 ns/day, 0.023 hours/ns, 11900.526 timesteps/s, 6.093 Matom-step/s
100.0% CPU use with 1 MPI tasks x 1 OpenMP threads

MPI task timing breakdown:
Section |  min time  |  avg time  |  max time  |%varavg| %total
---------------------------------------------------------------
Pair    | 0.034925   | 0.034925   | 0.034925   |   0.0 | 83.12
Neigh   | 0          | 0          | 0          |   0.0 |  0.00
Comm    | 0.0038538  | 0.0038538  | 0.0038538  |   0.0 |  9.17
Output  | 4.5045e-05 | 4.5045e-05 | 4.5045e-05 |   0.0 |  0.11
Modify  | 0.0023778  | 0.0023778  | 0.0023778  |   0.0 |  5.66
Other   |            | 0.0008136  |            |       |  1.94

Nlocal:            512 ave         512 max         512 min
Histogram: 1 0 0 0 0 0 0 0 0 0
Nghost:           2951 ave        2951 max        2951 min
Histogram: 1 0 0 0 0 0 0 0 0 0
Neighs:              0 ave           0 max           0 min
Histogram: 1 0 0 0 0 0 0 0 0 0

Total # of neighbors = 0
Ave neighs/atom = 0
Neighbor list builds = 0
Dangerous builds = 0
unfix 5a

if "${fac} == 1" then "jump SELF break_lb"
next loop_id
jump SELF start_lb
print "loop_id=${loop_id}"
loop_id=003
fix 3a all ave/time 1 20 20 c_thermo_press file ${loop_id}
fix 3a all ave/time 1 20 20 c_thermo_press file 003
fix 3b all nvt temp 300.0 300.0 0.1
run 1000
Per MPI rank memory allocation (min/avg/max) = 2.463 | 2.463 | 2.463 Mbytes
   Step          Temp          E_pair         E_mol          TotEng         Press     
    107022   285.81094     -2200.0578      0             -2181.1794     -1388.4123    
    108000   326.29815     -2201.1916      0             -2179.639      -1143.5965    
    108022   282.50195     -2198.0919      0             -2179.4321     -1312.6353    
Loop time of 0.0966349 on 1 procs for 1000 steps with 512 atoms

Performance: 894.087 ns/day, 0.027 hours/ns, 10348.229 timesteps/s, 5.298 Matom-step/s
100.0% CPU use with 1 MPI tasks x 1 OpenMP threads

MPI task timing breakdown:
Section |  min time  |  avg time  |  max time  |%varavg| %total
---------------------------------------------------------------
Pair    | 0.081029   | 0.081029   | 0.081029   |   0.0 | 83.85
Neigh   | 0          | 0          | 0          |   0.0 |  0.00
Comm    | 0.0077299  | 0.0077299  | 0.0077299  |   0.0 |  8.00
Output  | 5.0405e-05 | 5.0405e-05 | 5.0405e-05 |   0.0 |  0.05
Modify  | 0.0062127  | 0.0062127  | 0.0062127  |   0.0 |  6.43
Other   |            | 0.001613   |            |       |  1.67

Nlocal:            512 ave         512 max         512 min
Histogram: 1 0 0 0 0 0 0 0 0 0
Nghost:           2951 ave        2951 max        2951 min
Histogram: 1 0 0 0 0 0 0 0 0 0
Neighs:              0 ave           0 max           0 min
Histogram: 1 0 0 0 0 0 0 0 0 0

Total # of neighbors = 0
Ave neighs/atom = 0
Neighbor list builds = 0
Dangerous builds = 0
unfix 3a
unfix 3b

variable fac python getBdryFac
python getBdryFac input 2 1 ${loop_id} return v_fac format fsf here "from nemd.lmpfunc import getBdryFac"
python getBdryFac input 2 1 003 return v_fac format fsf here "from nemd.lmpfunc import getBdryFac"
print "fac=${fac}"
fac=0.998330547813691
fix 4a all deform 10 x scale ${fac} y scale ${fac} z scale ${fac}
fix 4a all deform 10 x scale 0.998330547813691 y scale ${fac} z scale ${fac}
fix 4a all deform 10 x scale 0.998330547813691 y scale 0.998330547813691 z scale ${fac}
fix 4a all deform 10 x scale 0.998330547813691 y scale 0.998330547813691 z scale 0.998330547813691
fix 4b all nvt temp 300.0 300.0 0.1
run 500
Per MPI rank memory allocation (min/avg/max) = 2.463 | 2.463 | 2.463 Mbytes
   Step          Temp          E_pair         E_mol          TotEng         Press          Volume    
    108022   282.50195     -2198.0919      0             -2179.4321     -1312.6366      10301.347    
    108522   288.90188     -2200.0105      0             -2180.928       3762.5131      10250.046    
Loop time of 0.0419552 on 1 procs for 500 steps with 512 atoms

Performance: 1029.669 ns/day, 0.023 hours/ns, 11917.463 timesteps/s, 6.102 Matom-step/s
100.0% CPU use with 1 MPI tasks x 1 OpenMP threads

MPI task timing breakdown:
Section |  min time  |  avg time  |  max time  |%varavg| %total
---------------------------------------------------------------
Pair    | 0.034751   | 0.034751   | 0.034751   |   0.0 | 82.83
Neigh   | 0          | 0          | 0          |   0.0 |  0.00
Comm    | 0.0039037  | 0.0039037  | 0.0039037  |   0.0 |  9.30
Output  | 1.3108e-05 | 1.3108e-05 | 1.3108e-05 |   0.0 |  0.03
Modify  | 0.0024536  | 0.0024536  | 0.0024536  |   0.0 |  5.85
Other   |            | 0.0008334  |            |       |  1.99

Nlocal:            512 ave         512 max         512 min
Histogram: 1 0 0 0 0 0 0 0 0 0
Nghost:           2961 ave        2961 max        2961 min
Histogram: 1 0 0 0 0 0 0 0 0 0
Neighs:              0 ave           0 max           0 min
Histogram: 1 0 0 0 0 0 0 0 0 0

Total # of neighbors = 0
Ave neighs/atom = 0
Neighbor list builds = 0
Dangerous builds = 0
unfix 4a
unfix 4b

fix 5a all nvt temp 300.0 300.0 0.1
run 500
Per MPI rank memory allocation (min/avg/max) = 2.463 | 2.463 | 2.463 Mbytes
   Step          Temp          E_pair         E_mol          TotEng         Press     
    108522   288.90188     -2200.0105      0             -2180.928       3762.5059    
    109000   297.01194     -2200.2396      0             -2180.6214      3794.132     
    109022   298.15334     -2200.4757      0             -2180.7821      3745.0418    
Loop time of 0.0420309 on 1 procs for 500 steps with 512 atoms

Performance: 1027.816 ns/day, 0.023 hours/ns, 11896.023 timesteps/s, 6.091 Matom-step/s
100.0% CPU use with 1 MPI tasks x 1 OpenMP threads

MPI task timing breakdown:
Section |  min time  |  avg time  |  max time  |%varavg| %total
---------------------------------------------------------------
Pair    | 0.034843   | 0.034843   | 0.034843   |   0.0 | 82.90
Neigh   | 0          | 0          | 0          |   0.0 |  0.00
Comm    | 0.0040019  | 0.0040019  | 0.0040019  |   0.0 |  9.52
Output  | 5.3339e-05 | 5.3339e-05 | 5.3339e-05 |   0.0 |  0.13
Modify  | 0.0023079  | 0.0023079  | 0.0023079  |   0.0 |  5.49
Other   |            | 0.0008251  |            |       |  1.96

Nlocal:            512 ave         512 max         512 min
Histogram: 1 0 0 0 0 0 0 0 0 0
Nghost:           3025 ave        3025 max        3025 min
Histogram: 1 0 0 0 0 0 0 0 0 0
Neighs:              0 ave           0 max           0 min
Histogram: 1 0 0 0 0 0 0 0 0 0

Total # of neighbors = 0
Ave neighs/atom = 0
Neighbor list builds = 0
Dangerous builds = 0
unfix 5a

if "${fac} == 1" then "jump SELF break_lb"
next loop_id
jump SELF start_lb
print "loop_id=${loop_id}"
loop_id=004
fix 3a all ave/time 1 20 20 c_thermo_press file ${loop_id}
fix 3a all ave/time 1 20 20 c_thermo_press file 004
fix 3b all nvt temp 300.0 300.0 0.1
run 1000
Per MPI rank memory allocation (min/avg/max) = 2.463 | 2.463 | 2.463 Mbytes
   Step          Temp          E_pair         E_mol          TotEng         Press     
    109022   298.15334     -2200.4757      0             -2180.7821      3745.0406    
    110000   314.07276     -2199.153       0             -2178.4079      3933.5046    
    110022   312.05498     -2199.0896      0             -2178.4778      4039.802     
Loop time of 0.0995737 on 1 procs for 1000 steps with 512 atoms

Performance: 867.699 ns/day, 0.028 hours/ns, 10042.817 timesteps/s, 5.142 Matom-step/s
98.9% CPU use with 1 MPI tasks x 1 OpenMP threads

MPI task timing breakdown:
Section |  min time  |  avg time  |  max time  |%varavg| %total
---------------------------------------------------------------
Pair    | 0.08397    | 0.08397    | 0.08397    |   0.0 | 84.33
Neigh   | 0          | 0          | 0          |   0.0 |  0.00
Comm    | 0.0077952  | 0.0077952  | 0.0077952  |   0.0 |  7.83
Output  | 4.0696e-05 | 4.0696e-05 | 4.0696e-05 |   0.0 |  0.04
Modify  | 0.0061409  | 0.0061409  | 0.0061409  |   0.0 |  6.17
Other   |            | 0.001626   |            |       |  1.63

Nlocal:            512 ave         512 max         512 min
Histogram: 1 0 0 0 0 0 0 0 0 0
Nghost:           2977 ave        2977 max        2977 min
Histogram: 1 0 0 0 0 0 0 0 0 0
Neighs:              0 ave           0 max           0 min
Histogram: 1 0 0 0 0 0 0 0 0 0

Total # of neighbors = 0
Ave neighs/atom = 0
Neighbor list builds = 0
Dangerous builds = 0
unfix 3a
unfix 3b

variable fac python getBdryFac
python getBdryFac input 2 1 ${loop_id} return v_fac format fsf here "from nemd.lmpfunc import getBdryFac"
python getBdryFac input 2 1 004 return v_fac format fsf here "from nemd.lmpfunc import getBdryFac"
print "fac=${fac}"
fac=1.00166389657931
fix 4a all deform 10 x scale ${fac} y scale ${fac} z scale ${fac}
fix 4a all deform 10 x scale 1.00166389657931 y scale ${fac} z scale ${fac}
fix 4a all deform 10 x scale 1.00166389657931 y scale 1.00166389657931 z scale ${fac}
fix 4a all deform 10 x scale 1.00166389657931 y scale 1.00166389657931 z scale 1.00166389657931
fix 4b all nvt temp 300.0 300.0 0.1
run 500
Per MPI rank memory allocation (min/avg/max) = 2.463 | 2.463 | 2.463 Mbytes
   Step          Temp          E_pair         E_mol          TotEng         Press          Volume    
    110022   312.05498     -2199.0897      0             -2178.4778      4039.8021      10250.046    
    110522   300.52996     -2199.4515      0             -2179.6009     -1136.4472      10301.091    
Loop time of 0.0420937 on 1 procs for 500 steps with 512 atoms

Performance: 1026.281 ns/day, 0.023 hours/ns, 11878.256 timesteps/s, 6.082 Matom-step/s
100.1% CPU use with 1 MPI tasks x 1 OpenMP threads

MPI task timing breakdown:
Section |  min time  |  avg time  |  max time  |%varavg| %total
---------------------------------------------------------------
Pair    | 0.034882   | 0.034882   | 0.034882   |   0.0 | 82.87
Neigh   | 0          | 0          | 0          |   0.0 |  0.00
Comm    | 0.0039213  | 0.0039213  | 0.0039213  |   0.0 |  9.32
Output  | 1.2118e-05 | 1.2118e-05 | 1.2118e-05 |   0.0 |  0.03
Modify  | 0.0024336  | 0.0024336  | 0.0024336  |   0.0 |  5.78
Other   |            | 0.0008448  |            |       |  2.01

Nlocal:            512 ave         512 max         512 min
Histogram: 1 0 0 0 0 0 0 0 0 0
Nghost:           3013 ave        3013 max        3013 min
Histogram: 1 0 0 0 0 0 0 0 0 0
Neighs:              0 ave           0 max           0 min
Histogram: 1 0 0 0 0 0 0 0 0 0

Total # of neighbors = 0
Ave neighs/atom = 0
Neighbor list builds = 0
Dangerous builds = 0
unfix 4a
unfix 4b

fix 5a all nvt temp 300.0 300.0 0.1
run 500
Per MPI rank memory allocation (min/avg/max) = 2.463 | 2.463 | 2.463 Mbytes
   Step          Temp          E_pair         E_mol          TotEng         Press     
    110522   300.52996     -2199.4515      0             -2179.6009     -1136.45      
    111000   288.19415     -2200.1294      0             -2181.0937     -1212.1585    
    111022   311.67359     -2201.5357      0             -2180.949      -1222.5941    
Loop time of 0.0416681 on 1 procs for 500 steps with 512 atoms

Performance: 1036.764 ns/day, 0.023 hours/ns, 11999.579 timesteps/s, 6.144 Matom-step/s
100.0% CPU use with 1 MPI tasks x 1 OpenMP threads

MPI task timing breakdown:
Section |  min time  |  avg time  |  max time  |%varavg| %total
---------------------------------------------------------------
Pair    | 0.034591   | 0.034591   | 0.034591   |   0.0 | 83.02
Neigh   | 0          | 0          | 0          |   0.0 |  0.00
Comm    | 0.0038992  | 0.0038992  | 0.0038992  |   0.0 |  9.36
Output  | 5.2348e-05 | 5.2348e-05 | 5.2348e-05 |   0.0 |  0.13
Modify  | 0.0023131  | 0.0023131  | 0.0023131  |   0.0 |  5.55
Other   |            | 0.0008122  |            |       |  1.95

Nlocal:            512 ave         512 max         512 min
Histogram: 1 0 0 0 0 0 0 0 0 0
Nghost:           2986 ave        2986 max        2986 min
Histogram: 1 0 0 0 0 0 0 0 0 0
Neighs:              0 ave           0 max           0 min
Histogram: 1 0 0 0 0 0 0 0 0 0

Total # of neighbors = 0
Ave neighs/atom = 0
Neighbor list builds = 0
Dangerous builds = 0
unfix 5a

if "${fac} == 1" then "jump SELF break_lb"
next loop_id
jump SELF start_lb
print "loop_id=${loop_id}"
loop_id=005
fix 3a all ave/time 1 20 20 c_thermo_press file ${loop_id}
fix 3a all ave/time 1 20 20 c_thermo_press file 005
fix 3b all nvt temp 300.0 300.0 0.1
run 1000
Per MPI rank memory allocation (min/avg/max) = 2.463 | 2.463 | 2.463 Mbytes
   Step          Temp          E_pair         E_mol          TotEng         Press     
    111022   311.67359     -2201.5357      0             -2180.949      -1222.5975    
    112000   308.22265     -2199.7524      0             -2179.3937     -1215.335     
    112022   314.51383     -2200.2409      0             -2179.4667     -1058.5327    
Loop time of 0.0960325 on 1 procs for 1000 steps with 512 atoms

Performance: 899.696 ns/day, 0.027 hours/ns, 10413.145 timesteps/s, 5.332 Matom-step/s
97.9% CPU use with 1 MPI tasks x 1 OpenMP threads

MPI task timing breakdown:
Section |  min time  |  avg time  |  max time  |%varavg| %total
---------------------------------------------------------------
Pair    | 0.080415   | 0.080415   | 0.080415   |   0.0 | 83.74
Neigh   | 0          | 0          | 0          |   0.0 |  0.00
Comm    | 0.007796   | 0.007796   | 0.007796   |   0.0 |  8.12
Output  | 4.294e-05  | 4.294e-05  | 4.294e-05  |   0.0 |  0.04
Modify  | 0.0061485  | 0.0061485  | 0.0061485  |   0.0 |  6.40
Other   |            | 0.00163    |            |       |  1.70

Nlocal:            512 ave         512 max         512 min
Histogram: 1 0 0 0 0 0 0 0 0 0
Nghost:           2969 ave        2969 max        2969 min
Histogram: 1 0 0 0 0 0 0 0 0 0
Neighs:              0 ave           0 max           0 min
Histogram: 1 0 0 0 0 0 0 0 0 0

Total # of neighbors = 0
Ave neighs/atom = 0
Neighbor list builds = 0
Dangerous builds = 0
unfix 3a
unfix 3b

variable fac python getBdryFac
python getBdryFac input 2 1 ${loop_id} return v_fac format fsf here "from nemd.lmpfunc import getBdryFac"
python getBdryFac input 2 1 005 return v_fac format fsf here "from nemd.lmpfunc import getBdryFac"
print "fac=${fac}"
fac=0.998330547813691
fix 4a all deform 10 x scale ${fac} y scale ${fac} z scale ${fac}
fix 4a all deform 10 x scale 0.998330547813691 y scale ${fac} z scale ${fac}
fix 4a all deform 10 x scale 0.998330547813691 y scale 0.998330547813691 z scale ${fac}
fix 4a all deform 10 x scale 0.998330547813691 y scale 0.998330547813691 z scale 0.998330547813691
fix 4b all nvt temp 300.0 300.0 0.1
run 500
Per MPI rank memory allocation (min/avg/max) = 2.463 | 2.463 | 2.463 Mbytes
   Step          Temp          E_pair         E_mol          TotEng         Press          Volume    
    112022   314.51383     -2200.2409      0             -2179.4667     -1058.5345      10301.091    
    112522   297.41017     -2200.5763      0             -2180.9318      3761.0618      10249.791    
Loop time of 0.0419974 on 1 procs for 500 steps with 512 atoms

Performance: 1028.634 ns/day, 0.023 hours/ns, 11905.487 timesteps/s, 6.096 Matom-step/s
97.7% CPU use with 1 MPI tasks x 1 OpenMP threads

MPI task timing breakdown:
Section |  min time  |  avg time  |  max time  |%varavg| %total
---------------------------------------------------------------
Pair    | 0.034816   | 0.034816   | 0.034816   |   0.0 | 82.90
Neigh   | 0          | 0          | 0          |   0.0 |  0.00
Comm    | 0.0038498  | 0.0038498  | 0.0038498  |   0.0 |  9.17
Output  | 1.2416e-05 | 1.2416e-05 | 1.2416e-05 |   0.0 |  0.03
Modify  | 0.0024732  | 0.0024732  | 0.0024732  |   0.0 |  5.89
Other   |            | 0.0008464  |            |       |  2.02

Nlocal:            512 ave         512 max         512 min
Histogram: 1 0 0 0 0 0 0 0 0 0
Nghost:           2957 ave        2957 max        2957 min
Histogram: 1 0 0 0 0 0 0 0 0 0
Neighs:              0 ave           0 max           0 min
Histogram: 1 0 0 0 0 0 0 0 0 0

Total # of neighbors = 0
Ave neighs/atom = 0
Neighbor list builds = 0
Dangerous builds = 0
unfix 4a
unfix 4b

fix 5a all nvt temp 300.0 300.0 0.1
run 500
Per MPI rank memory allocation (min/avg/max) = 2.463 | 2.463 | 2.463 Mbytes
   Step          Temp          E_pair         E_mol          TotEng         Press     
    112522   297.41017     -2200.5763      0             -2180.9318      3761.063     
    113000   321.72817     -2201.4879      0             -2180.2371      3923.2089    
    113022   301.78373     -2200.5207      0             -2180.5873      3773.2514    
Loop time of 0.0421108 on 1 procs for 500 steps with 512 atoms

Performance: 1025.866 ns/day, 0.023 hours/ns, 11873.446 timesteps/s, 6.079 Matom-step/s
97.6% CPU use with 1 MPI tasks x 1 OpenMP threads

MPI task timing breakdown:
Section |  min time  |  avg time  |  max time  |%varavg| %total
---------------------------------------------------------------
Pair    | 0.034952   | 0.034952   | 0.034952   |   0.0 | 83.00
Neigh   | 0          | 0          | 0          |   0.0 |  0.00
Comm    | 0.0039557  | 0.0039557  | 0.0039557  |   0.0 |  9.39
Output  | 5.4531e-05 | 5.4531e-05 | 5.4531e-05 |   0.0 |  0.13
Modify  | 0.0023318  | 0.0023318  | 0.0023318  |   0.0 |  5.54
Other   |            | 0.0008172  |            |       |  1.94

Nlocal:            512 ave         512 max         512 min
Histogram: 1 0 0 0 0 0 0 0 0 0
Nghost:           3035 ave        3035 max        3035 min
Histogram: 1 0 0 0 0 0 0 0 0 0
Neighs:              0 ave           0 max           0 min
Histogram: 1 0 0 0 0 0 0 0 0 0

Total # of neighbors = 0
Ave neighs/atom = 0
Neighbor list builds = 0
Dangerous builds = 0
unfix 5a

if "${fac} == 1" then "jump SELF break_lb"
next loop_id
jump SELF start_lb
print "loop_id=${loop_id}"
loop_id=006
fix 3a all ave/time 1 20 20 c_thermo_press file ${loop_id}
fix 3a all ave/time 1 20 20 c_thermo_press file 006
fix 3b all nvt temp 300.0 300.0 0.1
run 1000
Per MPI rank memory allocation (min/avg/max) = 2.463 | 2.463 | 2.463 Mbytes
   Step          Temp          E_pair         E_mol          TotEng         Press     
    113022   301.78373     -2200.5207      0             -2180.5873      3773.2511    
    114000   324.69786     -2198.792       0             -2177.3451      4032.8146    
    114022   317.77523     -2197.8837      0             -2176.894       4062.2755    
Loop time of 0.100274 on 1 procs for 1000 steps with 512 atoms

Performance: 861.637 ns/day, 0.028 hours/ns, 9972.655 timesteps/s, 5.106 Matom-step/s
100.0% CPU use with 1 MPI tasks x 1 OpenMP threads

MPI task timing breakdown:
Section |  min time  |  avg time  |  max time  |%varavg| %total
---------------------------------------------------------------
Pair    | 0.084272   | 0.084272   | 0.084272   |   0.0 | 84.04
Neigh   | 0          | 0          | 0          |   0.0 |  0.00
Comm    | 0.0080701  | 0.0080701  | 0.0080701  |   0.0 |  8.05
Output  | 5.1639e-05 | 5.1639e-05 | 5.1639e-05 |   0.0 |  0.05
Modify  | 0.0062034  | 0.0062034  | 0.0062034  |   0.0 |  6.19
Other   |            | 0.001677   |            |       |  1.67

Nlocal:            512 ave         512 max         512 min
Histogram: 1 0 0 0 0 0 0 0 0 0
Nghost:           3039 ave        3039 max        3039 min
Histogram: 1 0 0 0 0 0 0 0 0 0
Neighs:              0 ave           0 max           0 min
Histogram: 1 0 0 0 0 0 0 0 0 0

Total # of neighbors = 0
Ave neighs/atom = 0
Neighbor list builds = 0
Dangerous builds = 0
unfix 3a
unfix 3b

variable fac python getBdryFac
python getBdryFac input 2 1 ${loop_id} return v_fac format fsf here "from nemd.lmpfunc import getBdryFac"
python getBdryFac input 2 1 006 return v_fac format fsf here "from nemd.lmpfunc import getBdryFac"
print "fac=${fac}"
fac=1.00166389657931
fix 4a all deform 10 x scale ${fac} y scale ${fac} z scale ${fac}
fix 4a all deform 10 x scale 1.00166389657931 y scale ${fac} z scale ${fac}
fix 4a all deform 10 x scale 1.00166389657931 y scale 1.00166389657931 z scale ${fac}
fix 4a all deform 10 x scale 1.00166389657931 y scale 1.00166389657931 z scale 1.00166389657931
fix 4b all nvt temp 300.0 300.0 0.1
run 500
Per MPI rank memory allocation (min/avg/max) = 2.463 | 2.463 | 2.463 Mbytes
   Step          Temp          E_pair         E_mol          TotEng         Press          Volume    
    114022   317.77523     -2197.8837      0             -2176.894       4062.2712      10249.791    
    114522   305.77253     -2201.3547      0             -2181.1579     -1270.5542      10300.835    
Loop time of 0.0431983 on 1 procs for 500 steps with 512 atoms

Performance: 1000.039 ns/day, 0.024 hours/ns, 11574.528 timesteps/s, 5.926 Matom-step/s
100.0% CPU use with 1 MPI tasks x 1 OpenMP threads

MPI task timing breakdown:
Section |  min time  |  avg time  |  max time  |%varavg| %total
---------------------------------------------------------------
Pair    | 0.035897   | 0.035897   | 0.035897   |   0.0 | 83.10
Neigh   | 0          | 0          | 0          |   0.0 |  0.00
Comm    | 0.0039791  | 0.0039791  | 0.0039791  |   0.0 |  9.21
Output  | 1.6803e-05 | 1.6803e-05 | 1.6803e-05 |   0.0 |  0.04
Modify  | 0.0024395  | 0.0024395  | 0.0024395  |   0.0 |  5.65
Other   |            | 0.0008664  |            |       |  2.01

Nlocal:            512 ave         512 max         512 min
Histogram: 1 0 0 0 0 0 0 0 0 0
Nghost:           3023 ave        3023 max        3023 min
Histogram: 1 0 0 0 0 0 0 0 0 0
Neighs:              0 ave           0 max           0 min
Histogram: 1 0 0 0 0 0 0 0 0 0

Total # of neighbors = 0
Ave neighs/atom = 0
Neighbor list builds = 0
Dangerous builds = 0
unfix 4a
unfix 4b

fix 5a all nvt temp 300.0 300.0 0.1
run 500
Per MPI rank memory allocation (min/avg/max) = 2.463 | 2.463 | 2.463 Mbytes
   Step          Temp          E_pair         E_mol          TotEng         Press     
    114522   305.77253     -2201.3547      0             -2181.1579     -1270.5547    
    115000   288.72618     -2199.9703      0             -2180.8994     -1312.8763    
    115022   304.90113     -2201.1039      0             -2180.9646     -1288.9577    
Loop time of 0.0418217 on 1 procs for 500 steps with 512 atoms

Performance: 1032.956 ns/day, 0.023 hours/ns, 11955.513 timesteps/s, 6.121 Matom-step/s
97.4% CPU use with 1 MPI tasks x 1 OpenMP threads

MPI task timing breakdown:
Section |  min time  |  avg time  |  max time  |%varavg| %total
---------------------------------------------------------------
Pair    | 0.034782   | 0.034782   | 0.034782   |   0.0 | 83.17
Neigh   | 0          | 0          | 0          |   0.0 |  0.00
Comm    | 0.0038342  | 0.0038342  | 0.0038342  |   0.0 |  9.17
Output  | 4.7975e-05 | 4.7975e-05 | 4.7975e-05 |   0.0 |  0.11
Modify  | 0.0023466  | 0.0023466  | 0.0023466  |   0.0 |  5.61
Other   |            | 0.0008106  |            |       |  1.94

Nlocal:            512 ave         512 max         512 min
Histogram: 1 0 0 0 0 0 0 0 0 0
Nghost:           2941 ave        2941 max        2941 min
Histogram: 1 0 0 0 0 0 0 0 0 0
Neighs:              0 ave           0 max           0 min
Histogram: 1 0 0 0 0 0 0 0 0 0

Total # of neighbors = 0
Ave neighs/atom = 0
Neighbor list builds = 0
Dangerous builds = 0
unfix 5a

if "${fac} == 1" then "jump SELF break_lb"
next loop_id
jump SELF start_lb
print "loop_id=${loop_id}"
loop_id=007
fix 3a all ave/time 1 20 20 c_thermo_press file ${loop_id}
fix 3a all ave/time 1 20 20 c_thermo_press file 007
fix 3b all nvt temp 300.0 300.0 0.1
run 1000
Per MPI rank memory allocation (min/avg/max) = 2.463 | 2.463 | 2.463 Mbytes
   Step          Temp          E_pair         E_mol          TotEng         Press     
    115022   304.90113     -2201.1039      0             -2180.9646     -1288.9589    
    116000   315.96807     -2199.7964      0             -2178.9261     -1092.9788    
    116022   317.71557     -2199.9186      0             -2178.9329     -1116.1856    
Loop time of 0.0965525 on 1 procs for 1000 steps with 512 atoms

Performance: 894.850 ns/day, 0.027 hours/ns, 10357.061 timesteps/s, 5.303 Matom-step/s
99.0% CPU use with 1 MPI tasks x 1 OpenMP threads

MPI task timing breakdown:
Section |  min time  |  avg time  |  max time  |%varavg| %total
---------------------------------------------------------------
Pair    | 0.080824   | 0.080824   | 0.080824   |   0.0 | 83.71
Neigh   | 0          | 0          | 0          |   0.0 |  0.00
Comm    | 0.0078372  | 0.0078372  | 0.0078372  |   0.0 |  8.12
Output  | 4.673e-05  | 4.673e-05  | 4.673e-05  |   0.0 |  0.05
Modify  | 0.0062114  | 0.0062114  | 0.0062114  |   0.0 |  6.43
Other   |            | 0.001634   |            |       |  1.69

Nlocal:            512 ave         512 max         512 min
Histogram: 1 0 0 0 0 0 0 0 0 0
Nghost:           2993 ave        2993 max        2993 min
Histogram: 1 0 0 0 0 0 0 0 0 0
Neighs:              0 ave           0 max           0 min
Histogram: 1 0 0 0 0 0 0 0 0 0

Total # of neighbors = 0
Ave neighs/atom = 0
Neighbor list builds = 0
Dangerous builds = 0
unfix 3a
unfix 3b

variable fac python getBdryFac
python getBdryFac input 2 1 ${loop_id} return v_fac format fsf here "from nemd.lmpfunc import getBdryFac"
python getBdryFac input 2 1 007 return v_fac format fsf here "from nemd.lmpfunc import getBdryFac"
print "fac=${fac}"
fac=0.998330547813691
fix 4a all deform 10 x scale ${fac} y scale ${fac} z scale ${fac}
fix 4a all deform 10 x scale 0.998330547813691 y scale ${fac} z scale ${fac}
fix 4a all deform 10 x scale 0.998330547813691 y scale 0.998330547813691 z scale ${fac}
fix 4a all deform 10 x scale 0.998330547813691 y scale 0.998330547813691 z scale 0.998330547813691
fix 4b all nvt temp 300.0 300.0 0.1
run 500
Per MPI rank memory allocation (min/avg/max) = 2.463 | 2.463 | 2.463 Mbytes
   Step          Temp          E_pair         E_mol          TotEng         Press          Volume    
    116022   317.71557     -2199.9186      0             -2178.9329     -1116.1913      10300.835    
    116522   298.82558     -2199.9389      0             -2180.2009      3786.6612      10249.536    
Loop time of 0.0419633 on 1 procs for 500 steps with 512 atoms

Performance: 1029.471 ns/day, 0.023 hours/ns, 11915.174 timesteps/s, 6.101 Matom-step/s
100.0% CPU use with 1 MPI tasks x 1 OpenMP threads

MPI task timing breakdown:
Section |  min time  |  avg time  |  max time  |%varavg| %total
---------------------------------------------------------------
Pair    | 0.034729   | 0.034729   | 0.034729   |   0.0 | 82.76
Neigh   | 0          | 0          | 0          |   0.0 |  0.00
Comm    | 0.0039322  | 0.0039322  | 0.0039322  |   0.0 |  9.37
Output  | 1.2293e-05 | 1.2293e-05 | 1.2293e-05 |   0.0 |  0.03
Modify  | 0.0024481  | 0.0024481  | 0.0024481  |   0.0 |  5.83
Other   |            | 0.0008416  |            |       |  2.01

Nlocal:            512 ave         512 max         512 min
Histogram: 1 0 0 0 0 0 0 0 0 0
Nghost:           2991 ave        2991 max        2991 min
Histogram: 1 0 0 0 0 0 0 0 0 0
Neighs:              0 ave           0 max           0 min
Histogram: 1 0 0 0 0 0 0 0 0 0

Total # of neighbors = 0
Ave neighs/atom = 0
Neighbor list builds = 0
Dangerous builds = 0
unfix 4a
unfix 4b

fix 5a all nvt temp 300.0 300.0 0.1
run 500
Per MPI rank memory allocation (min/avg/max) = 2.463 | 2.463 | 2.463 Mbytes
   Step          Temp          E_pair         E_mol          TotEng         Press     
    116522   298.82558     -2199.9389      0             -2180.2009      3786.6604    
    117000   286.16253     -2199.4749      0             -2180.5733      3754.5345    
    117022   300.0614      -2200.1237      0             -2180.3041      3666.1966    
Loop time of 0.0420171 on 1 procs for 500 steps with 512 atoms

Performance: 1028.154 ns/day, 0.023 hours/ns, 11899.930 timesteps/s, 6.093 Matom-step/s
100.0% CPU use with 1 MPI tasks x 1 OpenMP threads

MPI task timing breakdown:
Section |  min time  |  avg time  |  max time  |%varavg| %total
---------------------------------------------------------------
Pair    | 0.034825   | 0.034825   | 0.034825   |   0.0 | 82.88
Neigh   | 0          | 0          | 0          |   0.0 |  0.00
Comm    | 0.0039459  | 0.0039459  | 0.0039459  |   0.0 |  9.39
Output  | 4.5036e-05 | 4.5036e-05 | 4.5036e-05 |   0.0 |  0.11
Modify  | 0.0023888  | 0.0023888  | 0.0023888  |   0.0 |  5.69
Other   |            | 0.0008126  |            |       |  1.93

Nlocal:            512 ave         512 max         512 min
Histogram: 1 0 0 0 0 0 0 0 0 0
Nghost:           3005 ave        3005 max        3005 min
Histogram: 1 0 0 0 0 0 0 0 0 0
Neighs:              0 ave           0 max           0 min
Histogram: 1 0 0 0 0 0 0 0 0 0

Total # of neighbors = 0
Ave neighs/atom = 0
Neighbor list builds = 0
Dangerous builds = 0
unfix 5a

if "${fac} == 1" then "jump SELF break_lb"
next loop_id
jump SELF start_lb
print "loop_id=${loop_id}"
loop_id=008
fix 3a all ave/time 1 20 20 c_thermo_press file ${loop_id}
fix 3a all ave/time 1 20 20 c_thermo_press file 008
fix 3b all nvt temp 300.0 300.0 0.1
run 1000
Per MPI rank memory allocation (min/avg/max) = 2.463 | 2.463 | 2.463 Mbytes
   Step          Temp          E_pair         E_mol          TotEng         Press     
    117022   300.0614      -2200.1237      0             -2180.3041      3666.202     
    118000   280.43236     -2201.1704      0             -2182.6473      3633.5398    
    118022   283.7077      -2201.2349      0             -2182.4955      3528.8771    
Loop time of 0.0989254 on 1 procs for 1000 steps with 512 atoms

Performance: 873.386 ns/day, 0.027 hours/ns, 10108.632 timesteps/s, 5.176 Matom-step/s
99.0% CPU use with 1 MPI tasks x 1 OpenMP threads

MPI task timing breakdown:
Section |  min time  |  avg time  |  max time  |%varavg| %total
---------------------------------------------------------------
Pair    | 0.083289   | 0.083289   | 0.083289   |   0.0 | 84.19
Neigh   | 0          | 0          | 0          |   0.0 |  0.00
Comm    | 0.0078336  | 0.0078336  | 0.0078336  |   0.0 |  7.92
Output  | 4.4986e-05 | 4.4986e-05 | 4.4986e-05 |   0.0 |  0.05
Modify  | 0.0061112  | 0.0061112  | 0.0061112  |   0.0 |  6.18
Other   |            | 0.001646   |            |       |  1.66

Nlocal:            512 ave         512 max         512 min
Histogram: 1 0 0 0 0 0 0 0 0 0
Nghost:           3001 ave        3001 max        3001 min
Histogram: 1 0 0 0 0 0 0 0 0 0
Neighs:              0 ave           0 max           0 min
Histogram: 1 0 0 0 0 0 0 0 0 0

Total # of neighbors = 0
Ave neighs/atom = 0
Neighbor list builds = 0
Dangerous builds = 0
unfix 3a
unfix 3b

variable fac python getBdryFac
python getBdryFac input 2 1 ${loop_id} return v_fac format fsf here "from nemd.lmpfunc import getBdryFac"
python getBdryFac input 2 1 008 return v_fac format fsf here "from nemd.lmpfunc import getBdryFac"
print "fac=${fac}"
fac=1.00166389657931
fix 4a all deform 10 x scale ${fac} y scale ${fac} z scale ${fac}
fix 4a all deform 10 x scale 1.00166389657931 y scale ${fac} z scale ${fac}
fix 4a all deform 10 x scale 1.00166389657931 y scale 1.00166389657931 z scale ${fac}
fix 4a all deform 10 x scale 1.00166389657931 y scale 1.00166389657931 z scale 1.00166389657931
fix 4b all nvt temp 300.0 300.0 0.1
run 500
Per MPI rank memory allocation (min/avg/max) = 2.463 | 2.463 | 2.463 Mbytes
   Step          Temp          E_pair         E_mol          TotEng         Press          Volume    
    118022   283.7077      -2201.2349      0             -2182.4955      3528.8747      10249.536    
    118522   291.73375     -2200.4413      0             -2181.1718     -1237.4489      10300.579    
Loop time of 0.042022 on 1 procs for 500 steps with 512 atoms

Performance: 1028.034 ns/day, 0.023 hours/ns, 11898.538 timesteps/s, 6.092 Matom-step/s
100.0% CPU use with 1 MPI tasks x 1 OpenMP threads

MPI task timing breakdown:
Section |  min time  |  avg time  |  max time  |%varavg| %total
---------------------------------------------------------------
Pair    | 0.034725   | 0.034725   | 0.034725   |   0.0 | 82.64
Neigh   | 0          | 0          | 0          |   0.0 |  0.00
Comm    | 0.0039785  | 0.0039785  | 0.0039785  |   0.0 |  9.47
Output  | 1.609e-05  | 1.609e-05  | 1.609e-05  |   0.0 |  0.04
Modify  | 0.0024562  | 0.0024562  | 0.0024562  |   0.0 |  5.85
Other   |            | 0.000846   |            |       |  2.01

Nlocal:            512 ave         512 max         512 min
Histogram: 1 0 0 0 0 0 0 0 0 0
Nghost:           3031 ave        3031 max        3031 min
Histogram: 1 0 0 0 0 0 0 0 0 0
Neighs:              0 ave           0 max           0 min
Histogram: 1 0 0 0 0 0 0 0 0 0

Total # of neighbors = 0
Ave neighs/atom = 0
Neighbor list builds = 0
Dangerous builds = 0
unfix 4a
unfix 4b

fix 5a all nvt temp 300.0 300.0 0.1
run 500
Per MPI rank memory allocation (min/avg/max) = 2.463 | 2.463 | 2.463 Mbytes
   Step          Temp          E_pair         E_mol          TotEng         Press     
    118522   291.73375     -2200.4413      0             -2181.1718     -1237.4501    
    119000   294.67868     -2199.2863      0             -2179.8222     -1200.141     
    119022   297.11452     -2199.5717      0             -2179.9467     -1299.1203    
Loop time of 0.0417741 on 1 procs for 500 steps with 512 atoms

Performance: 1034.134 ns/day, 0.023 hours/ns, 11969.144 timesteps/s, 6.128 Matom-step/s
100.0% CPU use with 1 MPI tasks x 1 OpenMP threads

MPI task timing breakdown:
Section |  min time  |  avg time  |  max time  |%varavg| %total
---------------------------------------------------------------
Pair    | 0.034694   | 0.034694   | 0.034694   |   0.0 | 83.05
Neigh   | 0          | 0          | 0          |   0.0 |  0.00
Comm    | 0.0038717  | 0.0038717  | 0.0038717  |   0.0 |  9.27
Output  | 4.4182e-05 | 4.4182e-05 | 4.4182e-05 |   0.0 |  0.11
Modify  | 0.0023552  | 0.0023552  | 0.0023552  |   0.0 |  5.64
Other   |            | 0.0008088  |            |       |  1.94

Nlocal:            512 ave         512 max         512 min
Histogram: 1 0 0 0 0 0 0 0 0 0
Nghost:           2967 ave        2967 max        2967 min
Histogram: 1 0 0 0 0 0 0 0 0 0
Neighs:              0 ave           0 max           0 min
Histogram: 1 0 0 0 0 0 0 0 0 0

Total # of neighbors = 0
Ave neighs/atom = 0
Neighbor list builds = 0
Dangerous builds = 0
unfix 5a

if "${fac} == 1" then "jump SELF break_lb"
next loop_id
jump SELF start_lb
print "loop_id=${loop_id}"
loop_id=009
fix 3a all ave/time 1 20 20 c_thermo_press file ${loop_id}
fix 3a all ave/time 1 20 20 c_thermo_press file 009
fix 3b all nvt temp 300.0 300.0 0.1
run 1000
Per MPI rank memory allocation (min/avg/max) = 2.463 | 2.463 | 2.463 Mbytes
   Step          Temp          E_pair         E_mol          TotEng         Press     
    119022   297.11452     -2199.5717      0             -2179.9467     -1299.1216    
    120000   297.17511     -2200.9934      0             -2181.3644     -1360.8491    
    120022   286.57414     -2200.4512      0             -2181.5224     -1279.1475    
Loop time of 0.0965128 on 1 procs for 1000 steps with 512 atoms

Performance: 895.218 ns/day, 0.027 hours/ns, 10361.321 timesteps/s, 5.305 Matom-step/s
100.0% CPU use with 1 MPI tasks x 1 OpenMP threads

MPI task timing breakdown:
Section |  min time  |  avg time  |  max time  |%varavg| %total
---------------------------------------------------------------
Pair    | 0.080939   | 0.080939   | 0.080939   |   0.0 | 83.86
Neigh   | 0          | 0          | 0          |   0.0 |  0.00
Comm    | 0.0077759  | 0.0077759  | 0.0077759  |   0.0 |  8.06
Output  | 4.5819e-05 | 4.5819e-05 | 4.5819e-05 |   0.0 |  0.05
Modify  | 0.006109   | 0.006109   | 0.006109   |   0.0 |  6.33
Other   |            | 0.001643   |            |       |  1.70

Nlocal:            512 ave         512 max         512 min
Histogram: 1 0 0 0 0 0 0 0 0 0
Nghost:           2977 ave        2977 max        2977 min
Histogram: 1 0 0 0 0 0 0 0 0 0
Neighs:              0 ave           0 max           0 min
Histogram: 1 0 0 0 0 0 0 0 0 0

Total # of neighbors = 0
Ave neighs/atom = 0
Neighbor list builds = 0
Dangerous builds = 0
unfix 3a
unfix 3b

variable fac python getBdryFac
python getBdryFac input 2 1 ${loop_id} return v_fac format fsf here "from nemd.lmpfunc import getBdryFac"
python getBdryFac input 2 1 009 return v_fac format fsf here "from nemd.lmpfunc import getBdryFac"
print "fac=${fac}"
fac=0.998330547813691
fix 4a all deform 10 x scale ${fac} y scale ${fac} z scale ${fac}
fix 4a all deform 10 x scale 0.998330547813691 y scale ${fac} z scale ${fac}
fix 4a all deform 10 x scale 0.998330547813691 y scale 0.998330547813691 z scale ${fac}
fix 4a all deform 10 x scale 0.998330547813691 y scale 0.998330547813691 z scale 0.998330547813691
fix 4b all nvt temp 300.0 300.0 0.1
run 500
Per MPI rank memory allocation (min/avg/max) = 2.463 | 2.463 | 2.463 Mbytes
   Step          Temp          E_pair         E_mol          TotEng         Press          Volume    
    120022   286.57414     -2200.4512      0             -2181.5224     -1279.1578      10300.579    
    120522   286.89349     -2199.4634      0             -2180.5136      3681.584       10249.281    
Loop time of 0.0424016 on 1 procs for 500 steps with 512 atoms

Performance: 1018.829 ns/day, 0.024 hours/ns, 11792.005 timesteps/s, 6.038 Matom-step/s
95.5% CPU use with 1 MPI tasks x 1 OpenMP threads

MPI task timing breakdown:
Section |  min time  |  avg time  |  max time  |%varavg| %total
---------------------------------------------------------------
Pair    | 0.035185   | 0.035185   | 0.035185   |   0.0 | 82.98
Neigh   | 0          | 0          | 0          |   0.0 |  0.00
Comm    | 0.0038493  | 0.0038493  | 0.0038493  |   0.0 |  9.08
Output  | 1.6739e-05 | 1.6739e-05 | 1.6739e-05 |   0.0 |  0.04
Modify  | 0.0024847  | 0.0024847  | 0.0024847  |   0.0 |  5.86
Other   |            | 0.0008655  |            |       |  2.04

Nlocal:            512 ave         512 max         512 min
Histogram: 1 0 0 0 0 0 0 0 0 0
Nghost:           2929 ave        2929 max        2929 min
Histogram: 1 0 0 0 0 0 0 0 0 0
Neighs:              0 ave           0 max           0 min
Histogram: 1 0 0 0 0 0 0 0 0 0

Total # of neighbors = 0
Ave neighs/atom = 0
Neighbor list builds = 0
Dangerous builds = 0
unfix 4a
unfix 4b

fix 5a all nvt temp 300.0 300.0 0.1
run 500
Per MPI rank memory allocation (min/avg/max) = 2.463 | 2.463 | 2.463 Mbytes
   Step          Temp          E_pair         E_mol          TotEng         Press     
    120522   286.89349     -2199.4634      0             -2180.5136      3681.5815    
    121000   298.20006     -2200.771       0             -2181.0743      3743.3164    
    121022   298.36318     -2200.5201      0             -2180.8127      3917.8141    
Loop time of 0.0419357 on 1 procs for 500 steps with 512 atoms

Performance: 1030.149 ns/day, 0.023 hours/ns, 11923.024 timesteps/s, 6.105 Matom-step/s
100.1% CPU use with 1 MPI tasks x 1 OpenMP threads

MPI task timing breakdown:
Section |  min time  |  avg time  |  max time  |%varavg| %total
---------------------------------------------------------------
Pair    | 0.034751   | 0.034751   | 0.034751   |   0.0 | 82.87
Neigh   | 0          | 0          | 0          |   0.0 |  0.00
Comm    | 0.0039409  | 0.0039409  | 0.0039409  |   0.0 |  9.40
Output  | 5.3758e-05 | 5.3758e-05 | 5.3758e-05 |   0.0 |  0.13
Modify  | 0.0023704  | 0.0023704  | 0.0023704  |   0.0 |  5.65
Other   |            | 0.0008198  |            |       |  1.95

Nlocal:            512 ave         512 max         512 min
Histogram: 1 0 0 0 0 0 0 0 0 0
Nghost:           3005 ave        3005 max        3005 min
Histogram: 1 0 0 0 0 0 0 0 0 0
Neighs:              0 ave           0 max           0 min
Histogram: 1 0 0 0 0 0 0 0 0 0

Total # of neighbors = 0
Ave neighs/atom = 0
Neighbor list builds = 0
Dangerous builds = 0
unfix 5a

if "${fac} == 1" then "jump SELF break_lb"
next loop_id
jump SELF start_lb
print "loop_id=${loop_id}"
loop_id=010
fix 3a all ave/time 1 20 20 c_thermo_press file ${loop_id}
fix 3a all ave/time 1 20 20 c_thermo_press file 010
fix 3b all nvt temp 300.0 300.0 0.1
run 1000
Per MPI rank memory allocation (min/avg/max) = 2.463 | 2.463 | 2.463 Mbytes
   Step          Temp          E_pair         E_mol          TotEng         Press     
    121022   298.36318     -2200.5201      0             -2180.8127      3917.8182    
    122000   325.54455     -2199.9657      0             -2178.4628      3992.5857    
    122022   317.879       -2199.6175      0             -2178.6209      4010.7877    
Loop time of 0.0990663 on 1 procs for 1000 steps with 512 atoms

Performance: 872.143 ns/day, 0.028 hours/ns, 10094.247 timesteps/s, 5.168 Matom-step/s
98.0% CPU use with 1 MPI tasks x 1 OpenMP threads

MPI task timing breakdown:
Section |  min time  |  avg time  |  max time  |%varavg| %total
---------------------------------------------------------------
Pair    | 0.083263   | 0.083263   | 0.083263   |   0.0 | 84.05
Neigh   | 0          | 0          | 0          |   0.0 |  0.00
Comm    | 0.0079667  | 0.0079667  | 0.0079667  |   0.0 |  8.04
Output  | 4.0676e-05 | 4.0676e-05 | 4.0676e-05 |   0.0 |  0.04
Modify  | 0.0061365  | 0.0061365  | 0.0061365  |   0.0 |  6.19
Other   |            | 0.001659   |            |       |  1.67

Nlocal:            512 ave         512 max         512 min
Histogram: 1 0 0 0 0 0 0 0 0 0
Nghost:           3031 ave        3031 max        3031 min
Histogram: 1 0 0 0 0 0 0 0 0 0
Neighs:              0 ave           0 max           0 min
Histogram: 1 0 0 0 0 0 0 0 0 0

Total # of neighbors = 0
Ave neighs/atom = 0
Neighbor list builds = 0
Dangerous builds = 0
unfix 3a
unfix 3b

variable fac python getBdryFac
python getBdryFac input 2 1 ${loop_id} return v_fac format fsf here "from nemd.lmpfunc import getBdryFac"
python getBdryFac input 2 1 010 return v_fac format fsf here "from nemd.lmpfunc import getBdryFac"
print "fac=${fac}"
fac=1.00166389657931
fix 4a all deform 10 x scale ${fac} y scale ${fac} z scale ${fac}
fix 4a all deform 10 x scale 1.00166389657931 y scale ${fac} z scale ${fac}
fix 4a all deform 10 x scale 1.00166389657931 y scale 1.00166389657931 z scale ${fac}
fix 4a all deform 10 x scale 1.00166389657931 y scale 1.00166389657931 z scale 1.00166389657931
fix 4b all nvt temp 300.0 300.0 0.1
run 500
Per MPI rank memory allocation (min/avg/max) = 2.463 | 2.463 | 2.463 Mbytes
   Step          Temp          E_pair         E_mol          TotEng         Press          Volume    
    122022   317.879       -2199.6175      0             -2178.6209      4010.7889      10249.281    
    122522   298.63985     -2199.5387      0             -2179.813      -1209.666       10300.322    
Loop time of 0.0420039 on 1 procs for 500 steps with 512 atoms

Performance: 1028.476 ns/day, 0.023 hours/ns, 11903.659 timesteps/s, 6.095 Matom-step/s
100.0% CPU use with 1 MPI tasks x 1 OpenMP threads

MPI task timing breakdown:
Section |  min time  |  avg time  |  max time  |%varavg| %total
---------------------------------------------------------------
Pair    | 0.034689   | 0.034689   | 0.034689   |   0.0 | 82.58
Neigh   | 0          | 0          | 0          |   0.0 |  0.00
Comm    | 0.003984   | 0.003984   | 0.003984   |   0.0 |  9.48
Output  | 1.2956e-05 | 1.2956e-05 | 1.2956e-05 |   0.0 |  0.03
Modify  | 0.0024665  | 0.0024665  | 0.0024665  |   0.0 |  5.87
Other   |            | 0.0008518  |            |       |  2.03

Nlocal:            512 ave         512 max         512 min
Histogram: 1 0 0 0 0 0 0 0 0 0
Nghost:           3033 ave        3033 max        3033 min
Histogram: 1 0 0 0 0 0 0 0 0 0
Neighs:              0 ave           0 max           0 min
Histogram: 1 0 0 0 0 0 0 0 0 0

Total # of neighbors = 0
Ave neighs/atom = 0
Neighbor list builds = 0
Dangerous builds = 0
unfix 4a
unfix 4b

fix 5a all nvt temp 300.0 300.0 0.1
run 500
Per MPI rank memory allocation (min/avg/max) = 2.463 | 2.463 | 2.463 Mbytes
   Step          Temp          E_pair         E_mol          TotEng         Press     
    122522   298.63985     -2199.5387      0             -2179.813      -1209.669     
    123000   305.51996     -2200.8792      0             -2180.699      -1133.8717    
    123022   291.87593     -2199.9272      0             -2180.6482     -1256.6598    
Loop time of 0.0417728 on 1 procs for 500 steps with 512 atoms

Performance: 1034.165 ns/day, 0.023 hours/ns, 11969.504 timesteps/s, 6.128 Matom-step/s
97.7% CPU use with 1 MPI tasks x 1 OpenMP threads

MPI task timing breakdown:
Section |  min time  |  avg time  |  max time  |%varavg| %total
---------------------------------------------------------------
Pair    | 0.034659   | 0.034659   | 0.034659   |   0.0 | 82.97
Neigh   | 0          | 0          | 0          |   0.0 |  0.00
Comm    | 0.0038829  | 0.0038829  | 0.0038829  |   0.0 |  9.30
Output  | 5.0567e-05 | 5.0567e-05 | 5.0567e-05 |   0.0 |  0.12
Modify  | 0.0023715  | 0.0023715  | 0.0023715  |   0.0 |  5.68
Other   |            | 0.0008084  |            |       |  1.94

Nlocal:            512 ave         512 max         512 min
Histogram: 1 0 0 0 0 0 0 0 0 0
Nghost:           2953 ave        2953 max        2953 min
Histogram: 1 0 0 0 0 0 0 0 0 0
Neighs:              0 ave           0 max           0 min
Histogram: 1 0 0 0 0 0 0 0 0 0

Total # of neighbors = 0
Ave neighs/atom = 0
Neighbor list builds = 0
Dangerous builds = 0
unfix 5a

if "${fac} == 1" then "jump SELF break_lb"
next loop_id
jump SELF start_lb
print "loop_id=${loop_id}"
loop_id=011
fix 3a all ave/time 1 20 20 c_thermo_press file ${loop_id}
fix 3a all ave/time 1 20 20 c_thermo_press file 011
fix 3b all nvt temp 300.0 300.0 0.1
run 1000
Per MPI rank memory allocation (min/avg/max) = 2.463 | 2.463 | 2.463 Mbytes
   Step          Temp          E_pair         E_mol          TotEng         Press     
    123022   291.87593     -2199.9272      0             -2180.6482     -1256.6572    
    124000   315.79154     -2199.294       0             -2178.4354     -1102.206     
[...]
   2185000   314.79375     -2199.5016      0             -2178.7089      191.33569    
   2186000   315.52878     -2199.5486      0             -2178.7073      351.56363    
   2187000   327.32507     -2200.3307      0             -2178.7102      268.05187    
   2188000   314.87537     -2199.5059      0             -2178.7078      324.49542    
   2189000   309.73032     -2199.1658      0             -2178.7075      169.94728    
   2190000   325.87759     -2200.235       0             -2178.7102      136.5142     
   2191000   307.73725     -2199.0346      0             -2178.7079      214.25117    
   2192000   312.90147     -2199.3753      0             -2178.7076      280.19314    
   2193000   313.91232     -2199.4425      0             -2178.708       356.37656    
   2194000   313.43032     -2199.411       0             -2178.7083      265.37697    
   2195000   317.98678     -2199.7127      0             -2178.7091      218.66049    
   2196000   302.609       -2198.6957      0             -2178.7078      235.6563     
   2197000   330.91104     -2200.5667      0             -2178.7094      336.18368    
   2198000   315.73848     -2199.5636      0             -2178.7085      398.30877    
   2199000   324.25338     -2200.1274      0             -2178.7098      139.7249     
   2200000   303.34497     -2198.743       0             -2178.7065      188.27474    
   2201000   329.07017     -2200.4452      0             -2178.7095      286.1066     
   2202000   317.23677     -2199.6627      0             -2178.7086      227.29058    
   2203000   324.09646     -2200.117       0             -2178.7098      238.81777    
   2204000   313.95239     -2199.446       0             -2178.7088      209.45507    
   2205000   302.3884      -2198.6804      0             -2178.707       287.51214    
   2206000   328.51844     -2200.4089      0             -2178.7097      323.25378    
   2207000   312.75103     -2199.3658      0             -2178.708       287.94909    
   2208000   315.74374     -2199.5639      0             -2178.7084      346.63871    
   2209000   314.50656     -2199.4806      0             -2178.7069      366.98698    
   2210000   317.64527     -2199.6897      0             -2178.7086      332.88401    
   2211000   315.27314     -2199.5329      0             -2178.7085      254.48855    
   2212000   311.48108     -2199.2813      0             -2178.7074      383.88312    
   2213000   314.13918     -2199.4571      0             -2178.7076      355.24476    
   2214000   302.38739     -2198.6804      0             -2178.7071      129.09989    
   2215000   315.39056     -2199.54        0             -2178.7078      205.60983    
   2216000   310.11529     -2199.1904      0             -2178.7067      258.16665    
   2217000   313.19412     -2199.3943      0             -2178.7072      229.86972    
   2218000   312.5612      -2199.3532      0             -2178.708       319.20166    
   2219000   317.65087     -2199.6904      0             -2178.709       171.79731    
   2220000   310.937       -2199.2461      0             -2178.7081      203.98911    
   2221000   313.19613     -2199.3946      0             -2178.7074      227.43645    
   2222000   308.49156     -2199.0844      0             -2178.708       167.18206    
   2223000   314.23417     -2199.4648      0             -2178.709       210.3906     
   2224000   311.0438      -2199.2527      0             -2178.7076      225.29478    
   2225000   303.65211     -2198.7632      0             -2178.7064      305.19927    
   2226000   307.53417     -2199.0199      0             -2178.7067      312.48887    
   2227000   321.45013     -2199.9412      0             -2178.7088      188.5947     
   2228000   324.34934     -2200.1329      0             -2178.709       226.3298     
   2229000   307.38725     -2199.0108      0             -2178.7073      171.1748     
   2230000   319.79383     -2199.8323      0             -2178.7093      208.22761    
   2231000   315.95943     -2199.5773      0             -2178.7076      347.67915    
   2232000   322.5415      -2200.0143      0             -2178.7099      124.34253    
   2233000   300.15357     -2198.532       0             -2178.7063      276.37798    
   2234000   319.12372     -2199.7868      0             -2178.7081      245.64437    
   2235000   303.95697     -2198.7841      0             -2178.7071      279.9624     
   2236000   328.62975     -2200.4152      0             -2178.7086      355.86216    
   2237000   309.92189     -2199.178       0             -2178.707       355.87921    
   2238000   321.58275     -2199.9508      0             -2178.7096      282.03502    
   2239000   320.86368     -2199.9022      0             -2178.7085      381.31483    
   2240000   306.87133     -2198.9774      0             -2178.708       348.68365    
   2241000   311.39622     -2199.2763      0             -2178.7079      370.17572    
   2242000   322.84369     -2200.0335      0             -2178.709       335.02468    
   2243000   305.15278     -2198.8645      0             -2178.7086      272.28763    
   2244000   312.32656     -2199.3375      0             -2178.7078      348.13994    
   2245000   326.43251     -2200.2712      0             -2178.7097      316.79677    
   2246000   293.07664     -2198.0639      0             -2178.7056      355.65988    
   2247000   323.851       -2200.1005      0             -2178.7095      282.43101    
   2248000   319.44226     -2199.8091      0             -2178.7093      298.8719     
   2249000   320.37649     -2199.8702      0             -2178.7087      329.49089    
   2250000   299.05123     -2198.4596      0             -2178.7067      386.08762    
   2251000   309.80131     -2199.1714      0             -2178.7084      193.76549    
   2252000   329.82389     -2200.4955      0             -2178.71        358.13781    
   2253000   300.67824     -2198.5667      0             -2178.7063      456.138      
   2254000   321.20317     -2199.9253      0             -2178.7092      245.7904     
   2255000   315.0115      -2199.5157      0             -2178.7085      243.70653    
   2256000   299.55554     -2198.4924      0             -2178.7062      376.62921    
   2257000   314.49507     -2199.4811      0             -2178.7081      298.55025    
   2258000   319.56299     -2199.8164      0             -2178.7086      322.68151    
   2259000   305.72412     -2198.9016      0             -2178.7079      295.15347    
   2260000   312.81423     -2199.3709      0             -2178.7089      280.83136    
   2261000   314.29052     -2199.4676      0             -2178.7081      296.14108    
   2262000   318.18371     -2199.7256      0             -2178.709       258.53664    
   2263000   320.48683     -2199.8779      0             -2178.7091      351.46844    
   2264000   319.12248     -2199.7876      0             -2178.709       237.34158    
   2265000   310.62809     -2199.2255      0             -2178.7079      308.03898    
   2266000   305.74531     -2198.9019      0             -2178.7068      333.10167    
   2267000   312.61936     -2199.3571      0             -2178.708       252.03921    
   2268000   320.09338     -2199.8525      0             -2178.7097      230.36314    
   2269000   300.6768      -2198.5667      0             -2178.7064      321.95106    
   2270000   327.99653     -2200.375       0             -2178.7102      202.14133    
   2271000   296.61554     -2198.2984      0             -2178.7064      261.61211    
   2272000   333.46273     -2200.7357      0             -2178.7098      220.11218    
   2273000   315.34398     -2199.5373      0             -2178.7083      260.47173    
   2274000   310.18664     -2199.1959      0             -2178.7075      370.07677    
   2275000   302.67416     -2198.6989      0             -2178.7066      372.65966    
   2276000   302.27056     -2198.6729      0             -2178.7073      283.65853    
   2277000   333.7253      -2200.7533      0             -2178.7101      274.2807     
   2278000   299.04806     -2198.4596      0             -2178.7069      202.96842    
   2279000   306.87829     -2198.9774      0             -2178.7075      324.60098    
   2280000   321.23095     -2199.927       0             -2178.7091      321.88744    
   2281000   317.69501     -2199.6928      0             -2178.7084      361.20687    
   2282000   320.18617     -2199.8582      0             -2178.7092      292.64087    
   2283000   300.63562     -2198.5642      0             -2178.7066      395.83993    
   2284000   307.47468     -2199.0175      0             -2178.7082      268.9368     
   2285000   302.10352     -2198.6612      0             -2178.7067      259.69553    
   2286000   312.29285     -2199.3353      0             -2178.7077      404.19725    
   2287000   310.78985     -2199.236       0             -2178.7077      277.87635    
   2288000   317.32673     -2199.6688      0             -2178.7088      412.33489    
   2289000   308.7775      -2199.1029      0             -2178.7076      325.96488    
   2290000   318.85314     -2199.769       0             -2178.7082      382.2884     
   2291000   316.10173     -2199.5882      0             -2178.7091      378.58938    
   2292000   311.78863     -2199.3018      0             -2178.7076      450.81056    
   2293000   330.05885     -2200.5114      0             -2178.7104      375.21339    
   2294000   303.37817     -2198.7462      0             -2178.7075      341.58183    
   2295000   313.44121     -2199.412       0             -2178.7086      310.43755    
   2296000   319.05312     -2199.782       0             -2178.708       274.61105    
   2297000   311.29231     -2199.2696      0             -2178.7082      318.82012    
   2298000   316.95142     -2199.6435      0             -2178.7083      291.40134    
   2299000   298.77566     -2198.442       0             -2178.7073      174.75323    
   2300000   331.06427     -2200.5765      0             -2178.7091      201.29119    
   2301000   308.61831     -2199.0912      0             -2178.7063      396.33258    
   2302000   319.25871     -2199.7959      0             -2178.7082      343.05154    
   2303000   305.32302     -2198.8739      0             -2178.7068      253.67207    
   2304000   309.67553     -2199.1624      0             -2178.7078      258.71702    
   2305000   322.2465      -2199.9933      0             -2178.7083      300.82827    
   2306000   327.9561      -2200.3712      0             -2178.709       329.95223    
   2307000   310.75762     -2199.234       0             -2178.7078      216.20389    
   2308000   315.42429     -2199.5434      0             -2178.709       129.42165    
   2309000   325.78133     -2200.2264      0             -2178.7079      303.98297    
   2310000   299.70664     -2198.5031      0             -2178.7069      100.46559    
   2311000   315.27005     -2199.532       0             -2178.7078      171.33656    
   2312000   323.64072     -2200.0852      0             -2178.7081      250.05196    
   2313000   301.1558      -2198.5987      0             -2178.7068      106.83088    
   2314000   325.14501     -2200.1847      0             -2178.7083      259.77415    
   2315000   318.49794     -2199.7457      0             -2178.7083      244.05578    
   2316000   335.97985     -2200.9017      0             -2178.7096      406.0428     
   2317000   318.76602     -2199.7623      0             -2178.7072      397.98356    
   2318000   306.11021     -2198.9274      0             -2178.7083      121.42038    
   2319000   308.76595     -2199.1017      0             -2178.7071      254.25583    
   2320000   316.87202     -2199.6376      0             -2178.7076      294.48119    
   2321000   310.31745     -2199.2048      0             -2178.7078      119.0268     
   2322000   316.96436     -2199.6447      0             -2178.7086      58.854541    
   2323000   318.87453     -2199.7709      0             -2178.7087      145.64315    
   2324000   306.74142     -2198.9678      0             -2178.7069      285.90445    
   2325000   320.15164     -2199.8552      0             -2178.7085      229.65594    
   2326000   301.4345      -2198.6181      0             -2178.7078      84.776861    
   2327000   321.08944     -2199.9174      0             -2178.7089      155.77138    
   2328000   323.27308     -2200.0618      0             -2178.709       243.53507    
   2329000   309.8769      -2199.1768      0             -2178.7088      115.32911    
   2330000   305.05892     -2198.8569      0             -2178.7072      203.21687    
   2331000   321.04673     -2199.9143      0             -2178.7086      274.41585    
   2332000   311.15639     -2199.2599      0             -2178.7074      375.10753    
   2333000   300.02507     -2198.5241      0             -2178.7069      206.41742    
   2334000   302.65548     -2198.6979      0             -2178.7069      221.44983    
   2335000   315.51562     -2199.5479      0             -2178.7075      315.30127    
   2336000   316.17473     -2199.5917      0             -2178.7077      230.27685    
   2337000   314.46402     -2199.4799      0             -2178.7089      64.395114    
   2338000   317.89279     -2199.7061      0             -2178.7087      152.47711    
   2339000   310.36675     -2199.2062      0             -2178.7058      304.80181    
   2340000   316.48824     -2199.613       0             -2178.7083      92.555898    
   2341000   310.67925     -2199.2285      0             -2178.7076      62.592511    
   2342000   328.94816     -2200.4378      0             -2178.7102      7.5691251    
   2343000   312.86389     -2199.3731      0             -2178.7078      218.79747    
   2344000   319.22957     -2199.7938      0             -2178.7081      142.8946     
   2345000   296.35055     -2198.2814      0             -2178.7069      69.835887    
   2346000   314.75531     -2199.4995      0             -2178.7093      71.43111     
   2347000   327.43939     -2200.3377      0             -2178.7097      202.26206    
   2348000   300.94315     -2198.5853      0             -2178.7074      100.27051    
   2349000   300.04955     -2198.5268      0             -2178.7079      134.97596    
   2350000   313.83156     -2199.4361      0             -2178.7069      286.47601    
   2351000   309.83094     -2199.1727      0             -2178.7077      210.46789    
   2352000   327.74945     -2200.3576      0             -2178.7091      280.88528    
   2353000   308.22249     -2199.0664      0             -2178.7077      177.72978    
   2354000   296.25925     -2198.2738      0             -2178.7053      302.9065     
   2355000   330.96023     -2200.5699      0             -2178.7094      308.01704    
   2356000   311.37618     -2199.2763      0             -2178.7093      77.561643    
   2357000   314.70312     -2199.4949      0             -2178.7082      181.70518    
   2358000   314.31568     -2199.4687      0             -2178.7076      290.31236    
   2359000   314.6452      -2199.4912      0             -2178.7083      185.01094    
   2360000   302.60807     -2198.6951      0             -2178.7072      165.36151    
   2361000   324.28081     -2200.1285      0             -2178.7092      211.66218    
   2362000   310.28019     -2199.2021      0             -2178.7075      275.50598    
   2363000   307.74464     -2199.0346      0             -2178.7075      279.50733    
   2364000   299.26552     -2198.473       0             -2178.706       244.30875    
   2365000   311.91965     -2199.3124      0             -2178.7095      110.56923    
   2366000   323.56027     -2200.0812      0             -2178.7095      167.19829    
   2367000   305.79154     -2198.9054      0             -2178.7073      242.85408    
   2368000   301.62039     -2198.6293      0             -2178.7067      253.76774    
   2369000   316.55905     -2199.6175      0             -2178.7082      173.8434     
   2370000   311.22335     -2199.2644      0             -2178.7075      233.72141    
   2371000   318.81964     -2199.7669      0             -2178.7083      203.97746    
   2372000   292.05622     -2197.9975      0             -2178.7066      138.6888     
   2373000   307.82851     -2199.0403      0             -2178.7076      237.10304    
   2374000   304.88782     -2198.8445      0             -2178.706       387.71085    
   2375000   306.81627     -2198.9736      0             -2178.7078      255.46047    
   2376000   318.19121     -2199.7258      0             -2178.7086      283.54542    
   2377000   321.52806     -2199.9456      0             -2178.708       403.3934     
   2378000   315.39517     -2199.5398      0             -2178.7074      398.06313    
   2379000   315.43016     -2199.5422      0             -2178.7074      322.75902    
   2380000   303.21078     -2198.735       0             -2178.7073      192.78736    
   2381000   297.17944     -2198.3356      0             -2178.7064      155.78644    
   2382000   298.62212     -2198.4313      0             -2178.7067      74.551113    
   2383000   316.80516     -2199.6347      0             -2178.7091      110.5606     
   2384000   307.05472     -2198.9895      0             -2178.7079      159.69389    
   2385000   315.98255     -2199.5794      0             -2178.7081      287.68218    
   2386000   305.90889     -2198.9138      0             -2178.7079      138.50099    
   2387000   312.57791     -2199.3547      0             -2178.7083      272.36226    
   2388000   307.99596     -2199.0515      0             -2178.7078      94.71845     
   2389000   321.68343     -2199.9569      0             -2178.7091      209.4953     
   2390000   323.66618     -2200.0877      0             -2178.709       248.37845    
   2391000   295.28156     -2198.2106      0             -2178.7067      130.84642    
   2392000   307.06116     -2198.989       0             -2178.707       160.47217    
   2393000   321.74419     -2199.9603      0             -2178.7085      249.49753    
   2394000   303.69685     -2198.7669      0             -2178.7071      253.46145    
   2395000   308.33811     -2199.0734      0             -2178.7071      324.96364    
   2396000   317.96402     -2199.711       0             -2178.7088      157.40483    
   2397000   308.52491     -2199.0874      0             -2178.7087      32.584153    
   2398000   311.25873     -2199.2668      0             -2178.7076      124.05974    
   2399000   303.09847     -2198.7274      0             -2178.7071     -9.4256926    
   2399022   312.47426     -2199.3481      0             -2178.7086      1.9636416    
Loop time of 80.037 on 1 procs for 1000000 steps with 512 atoms

Performance: 1079.501 ns/day, 0.022 hours/ns, 12494.227 timesteps/s, 6.397 Matom-step/s
99.5% CPU use with 1 MPI tasks x 1 OpenMP threads

MPI task timing breakdown:
Section |  min time  |  avg time  |  max time  |%varavg| %total
---------------------------------------------------------------
Pair    | 68.571     | 68.571     | 68.571     |   0.0 | 85.67
Neigh   | 0          | 0          | 0          |   0.0 |  0.00
Comm    | 8.0993     | 8.0993     | 8.0993     |   0.0 | 10.12
Output  | 0.038966   | 0.038966   | 0.038966   |   0.0 |  0.05
Modify  | 1.647      | 1.647      | 1.647      |   0.0 |  2.06
Other   |            | 1.68       |            |       |  2.10

Nlocal:            512 ave         512 max         512 min
Histogram: 1 0 0 0 0 0 0 0 0 0
Nghost:           2969 ave        2969 max        2969 min
Histogram: 1 0 0 0 0 0 0 0 0 0
Neighs:              0 ave           0 max           0 min
Histogram: 1 0 0 0 0 0 0 0 0 0

Total # of neighbors = 0
Ave neighs/atom = 0
Neighbor list builds = 0
Dangerous builds = 0
unfix 9a
undump 1

write_restart xtal_bldr.rst
System init for write_restart ...
Total wall time: 0:03:41
