Disp. Num. 3 ( 0.040000 Angstrom, 1 : +x, 3 : +x)

64 atoms
1 atom types

0.000000   10.800000   xlo xhi
0.000000   10.800000   ylo yhi
0.000000   10.800000   zlo zhi
0.000000    0.000000    0.000000   xy xz yz

Masses

 1 28.085

Atoms

    1   1   0.040000000000000   0.000000000000000   0.000000000000000
    2   1   0.000000000000000   0.000000000000000   5.400000000000000
    3   1   0.040000000000000   2.700000000000000   2.700000000000000
    4   1   0.000000000000000   2.700000000000000   8.100000000000000
    5   1   0.000000000000000   5.400000000000000   0.000000000000000
    6   1   0.000000000000000   5.400000000000000   5.400000000000000
    7   1   0.000000000000000   8.100000000000000   2.700000000000000
    8   1   0.000000000000000   8.100000000000000   8.100000000000000
    9   1   1.350000000000000   1.350000000000000   1.350000000000000
   10   1   1.350000000000000   1.350000000000000   6.750000000000000
   11   1   1.350000000000000   4.050000000000000   4.050000000000000
   12   1   1.350000000000000   4.050000000000000   9.449999999999999
   13   1   1.350000000000000   6.750000000000000   1.350000000000000
   14   1   1.350000000000000   6.750000000000000   6.750000000000000
   15   1   1.350000000000000   9.449999999999999   4.050000000000000
   16   1   1.350000000000000   9.449999999999999   9.449999999999999
   17   1   2.700000000000000   0.000000000000000   2.700000000000000
   18   1   2.700000000000000   0.000000000000000   8.100000000000000
   19   1   2.700000000000000   2.700000000000000   0.000000000000000
   20   1   2.700000000000000   2.700000000000000   5.400000000000000
   21   1   2.700000000000000   5.400000000000000   2.700000000000000
   22   1   2.700000000000000   5.400000000000000   8.100000000000000
   23   1   2.700000000000000   8.100000000000000   0.000000000000000
   24   1   2.700000000000000   8.100000000000000   5.400000000000000
   25   1   4.050000000000000   1.350000000000000   4.050000000000000
   26   1   4.050000000000000   1.350000000000000   9.449999999999999
   27   1   4.050000000000000   4.050000000000000   1.350000000000000
   28   1   4.050000000000000   4.050000000000000   6.750000000000000
   29   1   4.050000000000000   6.750000000000000   4.050000000000000
   30   1   4.050000000000000   6.750000000000000   9.449999999999999
   31   1   4.050000000000000   9.449999999999999   1.350000000000000
   32   1   4.050000000000000   9.449999999999999   6.750000000000000
   33   1   5.400000000000000   0.000000000000000   0.000000000000000
   34   1   5.400000000000000   0.000000000000000   5.400000000000000
   35   1   5.400000000000000   2.700000000000000   2.700000000000000
   36   1   5.400000000000000   2.700000000000000   8.100000000000000
   37   1   5.400000000000000   5.400000000000000   0.000000000000000
   38   1   5.400000000000000   5.400000000000000   5.400000000000000
   39   1   5.400000000000000   8.100000000000000   2.700000000000000
   40   1   5.400000000000000   8.100000000000000   8.100000000000000
   41   1   6.750000000000000   1.350000000000000   1.350000000000000
   42   1   6.750000000000000   1.350000000000000   6.750000000000000
   43   1   6.750000000000000   4.050000000000000   4.050000000000000
   44   1   6.750000000000000   4.050000000000000   9.449999999999999
   45   1   6.750000000000000   6.750000000000000   1.350000000000000
   46   1   6.750000000000000   6.750000000000000   6.750000000000000
   47   1   6.750000000000000   9.449999999999999   4.050000000000000
   48   1   6.750000000000000   9.449999999999999   9.449999999999999
   49   1   8.100000000000000   0.000000000000000   2.700000000000000
   50   1   8.100000000000000   0.000000000000000   8.100000000000000
   51   1   8.100000000000000   2.700000000000000   0.000000000000000
   52   1   8.100000000000000   2.700000000000000   5.400000000000000
   53   1   8.100000000000000   5.400000000000000   2.700000000000000
   54   1   8.100000000000000   5.400000000000000   8.100000000000000
   55   1   8.100000000000000   8.100000000000000   0.000000000000000
   56   1   8.100000000000000   8.100000000000000   5.400000000000000
   57   1   9.449999999999999   1.350000000000000   4.050000000000000
   58   1   9.449999999999999   1.350000000000000   9.449999999999999
   59   1   9.449999999999999   4.050000000000000   1.350000000000000
   60   1   9.449999999999999   4.050000000000000   6.750000000000000
   61   1   9.449999999999999   6.750000000000000   4.050000000000000
   62   1   9.449999999999999   6.750000000000000   9.449999999999999
   63   1   9.449999999999999   9.449999999999999   1.350000000000000
   64   1   9.449999999999999   9.449999999999999   6.750000000000000

