ITEM: TIMESTEP
0
ITEM: NUMBER OF ATOMS
64
ITEM: BOX BOUNDS xy xz yz pp pp pp
0.0000000000000000e+00 1.0800000000000001e+01 0.0000000000000000e+00
0.0000000000000000e+00 1.0800000000000001e+01 0.0000000000000000e+00
0.0000000000000000e+00 1.0800000000000001e+01 0.0000000000000000e+00
ITEM: ATOMS id xu yu zu fx fy fz
1    0.040000000000000    0.000000000000000    0.000000000000000   -0.732920544905002    0.002651370982993    0.002258861973898
3    0.000000000000000    2.740000000000000    2.700000000000000   -0.012171449214718   -0.732697347298446   -0.005533542991429
9    1.350000000000000    1.350000000000000    1.350000000000000    0.075816048220063    0.306388184778413    0.238819255438958
17    2.700000000000000    0.000000000000000    2.700000000000000    0.000345719445974    0.008975805044983    0.008880878999325
19    2.700000000000000    2.700000000000000    0.000000000000000    0.008946386517146   -0.008083434809106    0.000250740093840
33    5.400000000000000    0.000000000000000    0.000000000000000   -0.000000000000007   -0.000000000000014   -0.000000000000014
35    5.400000000000000    2.700000000000000    2.700000000000000   -0.000000000000010   -0.000000000000004   -0.000000000000004
41    6.750000000000000    1.350000000000000    1.350000000000000   -0.000000000000000   -0.000000000000000   -0.000000000000000
49    8.100000000000000    0.000000000000000    2.700000000000000    0.005560609165898    0.008521254777511   -0.008396856897555
51    8.100000000000000    2.700000000000000    0.000000000000000    0.008754035145162   -0.015063904095954    0.011590282876805
5    0.000000000000000    5.400000000000000    0.000000000000000   -0.006133301522074    0.003063825088933   -0.003202127744752
13    1.350000000000000    6.750000000000000    1.350000000000000   -0.000000000000000   -0.000000000000000   -0.000000000000000
21    2.700000000000000    5.400000000000000    2.700000000000000    0.003202127744734    0.003063825088930    0.006133301522056
27    4.050000000000000    4.050000000000000    1.350000000000000    0.000000000000007    0.000000000000007   -0.000000000000001
37    5.400000000000000    5.400000000000000    0.000000000000000   -0.000000000000005   -0.000000000000010   -0.000000000000011
45    6.750000000000000    6.750000000000000    1.350000000000000   -0.000000000000000   -0.000000000000000   -0.000000000000001
53    8.100000000000000    5.400000000000000    2.700000000000000   -0.003202127744738    0.003063825088933   -0.006133301522067
59    9.449999999999999    4.050000000000000    1.350000000000000   -0.122990537448970    0.191764025366432   -0.122990537448986
7    0.000000000000000    8.100000000000000    2.700000000000000   -0.011285562553852   -0.005882561428206    0.005882561428206
23    2.700000000000000    8.100000000000000    0.000000000000000    0.003063825088939   -0.003202127744738   -0.006133301522074
31    4.050000000000000    9.449999999999999    1.350000000000000    0.000000000000007    0.000000000000015   -0.000000000000001
39    5.400000000000000    8.100000000000000    2.700000000000000   -0.000000000000007    0.000000000000000   -0.000000000000006
55    8.100000000000000    8.100000000000000    0.000000000000000    0.002842503522937    0.002718105642961   -0.005678751254601
63    9.449999999999999    9.449999999999999    1.350000000000000    0.183688657720049    0.115747462951740   -0.115747462951726
2    0.000000000000000    0.000000000000000    5.400000000000000    0.005678751254580    0.002842503522923   -0.002718105642973
10    1.350000000000000    1.350000000000000    6.750000000000000   -0.000000000000000   -0.000000000000000   -0.000000000000000
20    2.700000000000000    2.700000000000000    5.400000000000000   -0.005911531622229   -0.012345798452991   -0.005911531622235
25    4.050000000000000    1.350000000000000    4.050000000000000    0.000000000000007   -0.000000000000001    0.000000000000007
34    5.400000000000000    0.000000000000000    5.400000000000000   -0.000000000000005   -0.000000000000011   -0.000000000000010
42    6.750000000000000    1.350000000000000    6.750000000000000   -0.000000000000000   -0.000000000000001   -0.000000000000000
52    8.100000000000000    2.700000000000000    5.400000000000000   -0.005882561428209   -0.011285562553848    0.005882561428202
57    9.449999999999999    1.350000000000000    4.050000000000000    0.115747462951740    0.183688657720033   -0.115747462951718
6    0.000000000000000    5.400000000000000    5.400000000000000    0.006133301522049    0.003063825088936    0.003202127744728
11    1.350000000000000    4.050000000000000    4.050000000000000    0.122990537448982    0.191764025366429    0.122990537448990
14    1.350000000000000    6.750000000000000    6.750000000000000   -0.000000000000001   -0.000000000000000   -0.000000000000000
28    4.050000000000000    4.050000000000000    6.750000000000000    0.000000000000010    0.000000000000010   -0.000000000000002
29    4.050000000000000    6.750000000000000    4.050000000000000    0.000000000000010   -0.000000000000002    0.000000000000010
38    5.400000000000000    5.400000000000000    5.400000000000000   -0.000000000000010   -0.000000000000010   -0.000000000000010
43    6.750000000000000    4.050000000000000    4.050000000000000   -0.000000000000002    0.000000000000010    0.000000000000010
46    6.750000000000000    6.750000000000000    6.750000000000000   -0.000000000000000   -0.000000000000000   -0.000000000000000
60    9.449999999999999    4.050000000000000    6.750000000000000    0.000000000000015    0.000000000000008    0.000000000000000
61    9.449999999999999    6.750000000000000    4.050000000000000    0.000000000000018   -0.000000000000003    0.000000000000010
15    1.350000000000000    9.449999999999999    4.050000000000000   -0.000000000000001    0.000000000000015    0.000000000000007
24    2.700000000000000    8.100000000000000    5.400000000000000   -0.000000000000006    0.000000000000000   -0.000000000000008
32    4.050000000000000    9.449999999999999    6.750000000000000    0.000000000000008    0.000000000000015    0.000000000000000
47    6.750000000000000    9.449999999999999    4.050000000000000   -0.000000000000000    0.000000000000020    0.000000000000008
56    8.100000000000000    8.100000000000000    5.400000000000000    0.000000000000000    0.000000000000000   -0.000000000000008
64    9.449999999999999    9.449999999999999    6.750000000000000    0.000000000000015    0.000000000000015   -0.000000000000000
4    0.000000000000000    2.700000000000000    8.100000000000000   -0.011285562553852    0.005882561428206   -0.005882561428206
18    2.700000000000000    0.000000000000000    8.100000000000000    0.003063825088937   -0.006133301522071   -0.003202127744735
26    4.050000000000000    1.350000000000000    9.449999999999999    0.000000000000007   -0.000000000000001    0.000000000000015
36    5.400000000000000    2.700000000000000    8.100000000000000   -0.000000000000007   -0.000000000000006    0.000000000000000
50    8.100000000000000    0.000000000000000    8.100000000000000    0.002842503522931   -0.005678751254601    0.002718105642966
58    9.449999999999999    1.350000000000000    9.449999999999999    0.183688657720054   -0.115747462951731    0.115747462951745
12    1.350000000000000    4.050000000000000    9.449999999999999   -0.000000000000001    0.000000000000007    0.000000000000015
22    2.700000000000000    5.400000000000000    8.100000000000000   -0.000000000000006   -0.000000000000007    0.000000000000000
30    4.050000000000000    6.750000000000000    9.449999999999999    0.000000000000005    0.000000000000003    0.000000000000018
44    6.750000000000000    4.050000000000000    9.449999999999999   -0.000000000000003    0.000000000000010    0.000000000000018
54    8.100000000000000    5.400000000000000    8.100000000000000    0.000000000000000   -0.000000000000008    0.000000000000000
62    9.449999999999999    6.750000000000000    9.449999999999999    0.000000000000015   -0.000000000000000    0.000000000000021
8    0.000000000000000    8.100000000000000    8.100000000000000   -0.012345798452995    0.005911531622226    0.005911531622226
16    1.350000000000000    9.449999999999999    9.449999999999999    0.191764025366420   -0.122990537448967   -0.122990537448967
40    5.400000000000000    8.100000000000000    8.100000000000000   -0.000000000000008    0.000000000000000    0.000000000000000
48    6.750000000000000    9.449999999999999    9.449999999999999   -0.000000000000000    0.000000000000021    0.000000000000015
