ITEM: TIMESTEP
0
ITEM: NUMBER OF ATOMS
64
ITEM: BOX BOUNDS xy xz yz pp pp pp
0.0000000000000000e+00 1.0800000000000001e+01 0.0000000000000000e+00
0.0000000000000000e+00 1.0800000000000001e+01 0.0000000000000000e+00
0.0000000000000000e+00 1.0800000000000001e+01 0.0000000000000000e+00
ITEM: ATOMS id xu yu zu fx fy fz
1    0.010000000000000    0.000000000000000    0.000000000000000   -0.181874099114330   -0.000000000000006   -0.000000000000017
3    0.000000000000000    2.700000000000000    2.700000000000000   -0.002986753035971   -0.001477547543417   -0.001477547543417
9    1.350000000000000    1.350000000000000    1.350000000000000    0.047198050654357    0.030053067094914    0.030053067094913
17    2.700000000000000    0.000000000000000    2.700000000000000    0.000745309077919    0.001490987608247    0.000753622448498
19    2.700000000000000    2.700000000000000    0.000000000000000    0.000745309077919    0.000753622448498    0.001490987608247
33    5.400000000000000    0.000000000000000    0.000000000000000   -0.000000000000007   -0.000000000000014   -0.000000000000014
35    5.400000000000000    2.700000000000000    2.700000000000000   -0.000000000000010   -0.000000000000004   -0.000000000000004
41    6.750000000000000    1.350000000000000    1.350000000000000   -0.000000000000000   -0.000000000000000   -0.000000000000000
49    8.100000000000000    0.000000000000000    2.700000000000000    0.000731472330135    0.001462565785944   -0.000723376248525
51    8.100000000000000    2.700000000000000    0.000000000000000    0.000731472330138   -0.000723376248528    0.001462565785947
5    0.000000000000000    5.400000000000000    0.000000000000000   -0.000000000000014   -0.000000000000007   -0.000000000000014
13    1.350000000000000    6.750000000000000    1.350000000000000   -0.000000000000000   -0.000000000000000   -0.000000000000000
21    2.700000000000000    5.400000000000000    2.700000000000000   -0.000000000000004   -0.000000000000010   -0.000000000000004
27    4.050000000000000    4.050000000000000    1.350000000000000    0.000000000000007    0.000000000000007   -0.000000000000001
37    5.400000000000000    5.400000000000000    0.000000000000000   -0.000000000000005   -0.000000000000010   -0.000000000000011
45    6.750000000000000    6.750000000000000    1.350000000000000   -0.000000000000000   -0.000000000000000   -0.000000000000001
53    8.100000000000000    5.400000000000000    2.700000000000000    0.000000000000000   -0.000000000000007   -0.000000000000006
59    9.449999999999999    4.050000000000000    1.350000000000000    0.000000000000015    0.000000000000007   -0.000000000000001
7    0.000000000000000    8.100000000000000    2.700000000000000   -0.002920467129079   -0.001475725125757    0.001475725125757
23    2.700000000000000    8.100000000000000    0.000000000000000    0.000745309077921   -0.000753622448501   -0.001490987608271
31    4.050000000000000    9.449999999999999    1.350000000000000    0.000000000000007    0.000000000000015   -0.000000000000001
39    5.400000000000000    8.100000000000000    2.700000000000000   -0.000000000000007    0.000000000000000   -0.000000000000006
55    8.100000000000000    8.100000000000000    0.000000000000000    0.000731472330138    0.000723376248522   -0.001462565785968
63    9.449999999999999    9.449999999999999    1.350000000000000    0.046692656251728    0.029600439910829   -0.029600439910815
2    0.000000000000000    0.000000000000000    5.400000000000000   -0.000000000000011   -0.000000000000011   -0.000000000000010
10    1.350000000000000    1.350000000000000    6.750000000000000   -0.000000000000000   -0.000000000000000   -0.000000000000000
20    2.700000000000000    2.700000000000000    5.400000000000000   -0.000000000000004   -0.000000000000004   -0.000000000000010
25    4.050000000000000    1.350000000000000    4.050000000000000    0.000000000000007   -0.000000000000001    0.000000000000007
34    5.400000000000000    0.000000000000000    5.400000000000000   -0.000000000000005   -0.000000000000011   -0.000000000000010
42    6.750000000000000    1.350000000000000    6.750000000000000   -0.000000000000000   -0.000000000000001   -0.000000000000000
52    8.100000000000000    2.700000000000000    5.400000000000000    0.000000000000000   -0.000000000000006   -0.000000000000008
57    9.449999999999999    1.350000000000000    4.050000000000000    0.000000000000015   -0.000000000000001    0.000000000000007
6    0.000000000000000    5.400000000000000    5.400000000000000   -0.000000000000011   -0.000000000000005   -0.000000000000010
11    1.350000000000000    4.050000000000000    4.050000000000000   -0.000000000000001    0.000000000000007    0.000000000000007
14    1.350000000000000    6.750000000000000    6.750000000000000   -0.000000000000001   -0.000000000000000   -0.000000000000000
28    4.050000000000000    4.050000000000000    6.750000000000000    0.000000000000010    0.000000000000010   -0.000000000000002
29    4.050000000000000    6.750000000000000    4.050000000000000    0.000000000000010   -0.000000000000002    0.000000000000010
38    5.400000000000000    5.400000000000000    5.400000000000000   -0.000000000000010   -0.000000000000010   -0.000000000000010
43    6.750000000000000    4.050000000000000    4.050000000000000   -0.000000000000002    0.000000000000010    0.000000000000010
46    6.750000000000000    6.750000000000000    6.750000000000000   -0.000000000000000   -0.000000000000000   -0.000000000000000
60    9.449999999999999    4.050000000000000    6.750000000000000    0.000000000000015    0.000000000000008    0.000000000000000
61    9.449999999999999    6.750000000000000    4.050000000000000    0.000000000000018   -0.000000000000003    0.000000000000010
15    1.350000000000000    9.449999999999999    4.050000000000000   -0.000000000000001    0.000000000000015    0.000000000000007
24    2.700000000000000    8.100000000000000    5.400000000000000   -0.000000000000006    0.000000000000000   -0.000000000000008
32    4.050000000000000    9.449999999999999    6.750000000000000    0.000000000000008    0.000000000000015    0.000000000000000
47    6.750000000000000    9.449999999999999    4.050000000000000   -0.000000000000000    0.000000000000020    0.000000000000008
56    8.100000000000000    8.100000000000000    5.400000000000000    0.000000000000000    0.000000000000000   -0.000000000000008
64    9.449999999999999    9.449999999999999    6.750000000000000    0.000000000000015    0.000000000000015   -0.000000000000000
4    0.000000000000000    2.700000000000000    8.100000000000000   -0.002920467129079    0.001475725125757   -0.001475725125757
18    2.700000000000000    0.000000000000000    8.100000000000000    0.000745309077919   -0.001490987608268   -0.000753622448498
26    4.050000000000000    1.350000000000000    9.449999999999999    0.000000000000007   -0.000000000000001    0.000000000000015
36    5.400000000000000    2.700000000000000    8.100000000000000   -0.000000000000007   -0.000000000000006    0.000000000000000
50    8.100000000000000    0.000000000000000    8.100000000000000    0.000731472330132   -0.001462565785968    0.000723376248527
58    9.449999999999999    1.350000000000000    9.449999999999999    0.046692656251734   -0.029600439910820    0.029600439910834
12    1.350000000000000    4.050000000000000    9.449999999999999   -0.000000000000001    0.000000000000007    0.000000000000015
22    2.700000000000000    5.400000000000000    8.100000000000000   -0.000000000000006   -0.000000000000007    0.000000000000000
30    4.050000000000000    6.750000000000000    9.449999999999999    0.000000000000005    0.000000000000003    0.000000000000018
44    6.750000000000000    4.050000000000000    9.449999999999999   -0.000000000000003    0.000000000000010    0.000000000000018
54    8.100000000000000    5.400000000000000    8.100000000000000    0.000000000000000   -0.000000000000008    0.000000000000000
62    9.449999999999999    6.750000000000000    9.449999999999999    0.000000000000015   -0.000000000000000    0.000000000000021
8    0.000000000000000    8.100000000000000    8.100000000000000   -0.002986753035968    0.001477547543414    0.001477547543414
16    1.350000000000000    9.449999999999999    9.449999999999999    0.047198050654357   -0.030053067094899   -0.030053067094899
40    5.400000000000000    8.100000000000000    8.100000000000000   -0.000000000000008    0.000000000000000    0.000000000000000
48    6.750000000000000    9.449999999999999    9.449999999999999   -0.000000000000000    0.000000000000021    0.000000000000015
