ITEM: TIMESTEP
0
ITEM: NUMBER OF ATOMS
64
ITEM: BOX BOUNDS xy xz yz pp pp pp
0.0000000000000000e+00 1.0800000000000001e+01 0.0000000000000000e+00
0.0000000000000000e+00 1.0800000000000001e+01 0.0000000000000000e+00
0.0000000000000000e+00 1.0800000000000001e+01 0.0000000000000000e+00
ITEM: ATOMS id xu yu zu fx fy fz
3    0.000000000000000    2.660000000000000    2.700000000000000    0.011402610349202    0.733576168800858    0.006237524535472
9    1.350000000000000    1.350000000000000    1.350000000000000   -0.060730983909243   -0.307744596398886   -0.238644921622394
17    2.700000000000000    0.000000000000000    2.700000000000000    0.000359624221801   -0.008742576343542   -0.008851407165027
19    2.700000000000000    2.700000000000000    0.000000000000000   -0.008754035145162    0.009627692810021    0.000232780367624
33    5.400000000000000    0.000000000000000    0.000000000000000   -0.000000000000007   -0.000000000000014   -0.000000000000014
35    5.400000000000000    2.700000000000000    2.700000000000000   -0.000000000000010   -0.000000000000004   -0.000000000000004
41    6.750000000000000    1.350000000000000    1.350000000000000   -0.000000000000000   -0.000000000000000   -0.000000000000000
1   -0.039999999999999    0.000000000000000    0.000000000000000    0.733317075971611   -0.003256365774114   -0.003650169630333
49    8.100000000000000    0.000000000000000    2.700000000000000   -0.006265952833678   -0.009197126611014    0.009335429266797
51    8.100000000000000    2.700000000000000    0.000000000000000   -0.008946386517146    0.014487690298576   -0.012015862950280
5    0.000000000000000    5.400000000000000    0.000000000000000    0.005678751254577   -0.002842503522941    0.002718105642950
13    1.350000000000000    6.750000000000000    1.350000000000000   -0.000000000000000   -0.000000000000000   -0.000000000000000
21    2.700000000000000    5.400000000000000    2.700000000000000   -0.002718105642967   -0.002842503522944   -0.005678751254594
27    4.050000000000000    4.050000000000000    1.350000000000000    0.000000000000007    0.000000000000007   -0.000000000000001
37    5.400000000000000    5.400000000000000    0.000000000000000   -0.000000000000005   -0.000000000000010   -0.000000000000011
45    6.750000000000000    6.750000000000000    1.350000000000000   -0.000000000000000   -0.000000000000000   -0.000000000000001
53    8.100000000000000    5.400000000000000    2.700000000000000    0.002718105642963   -0.002842503522941    0.005678751254584
59    9.449999999999999    4.050000000000000    1.350000000000000    0.115747462951740   -0.183688657720027    0.115747462951725
7    0.000000000000000    8.100000000000000    2.700000000000000    0.012345798452976    0.005911531622228   -0.005911531622229
23    2.700000000000000    8.100000000000000    0.000000000000000   -0.002842503522935    0.002718105642964    0.005678751254577
31    4.050000000000000    9.449999999999999    1.350000000000000    0.000000000000007    0.000000000000015   -0.000000000000001
39    5.400000000000000    8.100000000000000    2.700000000000000   -0.000000000000007    0.000000000000000   -0.000000000000006
55    8.100000000000000    8.100000000000000    0.000000000000000   -0.003063825088937   -0.003202127744740    0.006133301522049
63    9.449999999999999    9.449999999999999    1.350000000000000   -0.191764025366402   -0.122990537448965    0.122990537448978
2    0.000000000000000    0.000000000000000    5.400000000000000   -0.006133301522071   -0.003063825088951    0.003202127744728
10    1.350000000000000    1.350000000000000    6.750000000000000   -0.000000000000000   -0.000000000000000   -0.000000000000000
20    2.700000000000000    2.700000000000000    5.400000000000000    0.005882561428205    0.011285562553837    0.005882561428199
25    4.050000000000000    1.350000000000000    4.050000000000000    0.000000000000007   -0.000000000000001    0.000000000000007
34    5.400000000000000    0.000000000000000    5.400000000000000   -0.000000000000005   -0.000000000000011   -0.000000000000010
42    6.750000000000000    1.350000000000000    6.750000000000000   -0.000000000000000   -0.000000000000001   -0.000000000000000
52    8.100000000000000    2.700000000000000    5.400000000000000    0.005911531622225    0.012345798452981   -0.005911531622233
57    9.449999999999999    1.350000000000000    4.050000000000000   -0.122990537448970   -0.191764025366425    0.122990537448992
6    0.000000000000000    5.400000000000000    5.400000000000000   -0.005678751254601   -0.002842503522938   -0.002718105642973
11    1.350000000000000    4.050000000000000    4.050000000000000   -0.115747462951727   -0.183688657720027   -0.115747462951718
14    1.350000000000000    6.750000000000000    6.750000000000000   -0.000000000000001   -0.000000000000000   -0.000000000000000
28    4.050000000000000    4.050000000000000    6.750000000000000    0.000000000000010    0.000000000000010   -0.000000000000002
29    4.050000000000000    6.750000000000000    4.050000000000000    0.000000000000010   -0.000000000000002    0.000000000000010
38    5.400000000000000    5.400000000000000    5.400000000000000   -0.000000000000010   -0.000000000000010   -0.000000000000010
43    6.750000000000000    4.050000000000000    4.050000000000000   -0.000000000000002    0.000000000000010    0.000000000000010
46    6.750000000000000    6.750000000000000    6.750000000000000   -0.000000000000000   -0.000000000000000   -0.000000000000000
60    9.449999999999999    4.050000000000000    6.750000000000000    0.000000000000015    0.000000000000008    0.000000000000000
61    9.449999999999999    6.750000000000000    4.050000000000000    0.000000000000018   -0.000000000000003    0.000000000000010
15    1.350000000000000    9.449999999999999    4.050000000000000   -0.000000000000001    0.000000000000015    0.000000000000007
24    2.700000000000000    8.100000000000000    5.400000000000000   -0.000000000000006    0.000000000000000   -0.000000000000008
32    4.050000000000000    9.449999999999999    6.750000000000000    0.000000000000008    0.000000000000015    0.000000000000000
47    6.750000000000000    9.449999999999999    4.050000000000000   -0.000000000000000    0.000000000000020    0.000000000000008
56    8.100000000000000    8.100000000000000    5.400000000000000    0.000000000000000    0.000000000000000   -0.000000000000008
64    9.449999999999999    9.449999999999999    6.750000000000000    0.000000000000015    0.000000000000015   -0.000000000000000
4    0.000000000000000    2.700000000000000    8.100000000000000    0.012345798452976   -0.005911531622229    0.005911531622228
18    2.700000000000000    0.000000000000000    8.100000000000000   -0.002842503522937    0.005678751254580    0.002718105642967
26    4.050000000000000    1.350000000000000    9.449999999999999    0.000000000000007   -0.000000000000001    0.000000000000015
36    5.400000000000000    2.700000000000000    8.100000000000000   -0.000000000000007   -0.000000000000006    0.000000000000000
50    8.100000000000000    0.000000000000000    8.100000000000000   -0.003063825088942    0.006133301522049   -0.003202127744735
58    9.449999999999999    1.350000000000000    9.449999999999999   -0.191764025366402    0.122990537448978   -0.122990537448965
12    1.350000000000000    4.050000000000000    9.449999999999999   -0.000000000000001    0.000000000000007    0.000000000000015
22    2.700000000000000    5.400000000000000    8.100000000000000   -0.000000000000006   -0.000000000000007    0.000000000000000
30    4.050000000000000    6.750000000000000    9.449999999999999    0.000000000000005    0.000000000000003    0.000000000000018
44    6.750000000000000    4.050000000000000    9.449999999999999   -0.000000000000003    0.000000000000010    0.000000000000018
54    8.100000000000000    5.400000000000000    8.100000000000000    0.000000000000000   -0.000000000000008    0.000000000000000
62    9.449999999999999    6.750000000000000    9.449999999999999    0.000000000000015   -0.000000000000000    0.000000000000021
8    0.000000000000000    8.100000000000000    8.100000000000000    0.011285562553833   -0.005882561428209   -0.005882561428209
16    1.350000000000000    9.449999999999999    9.449999999999999   -0.183688657720034    0.115747462951741    0.115747462951741
40    5.400000000000000    8.100000000000000    8.100000000000000   -0.000000000000008    0.000000000000000    0.000000000000000
48    6.750000000000000    9.449999999999999    9.449999999999999   -0.000000000000000    0.000000000000021    0.000000000000015
