ITEM: TIMESTEP
0
ITEM: NUMBER OF ATOMS
64
ITEM: BOX BOUNDS xy xz yz pp pp pp
0.0000000000000000e+00 1.0800000000000001e+01 0.0000000000000000e+00
0.0000000000000000e+00 1.0800000000000001e+01 0.0000000000000000e+00
0.0000000000000000e+00 1.0800000000000001e+01 0.0000000000000000e+00
ITEM: ATOMS id xu yu zu fx fy fz
9    1.350000000000000    1.350000000000000    1.350000000000000   -0.365287414254747   -0.000000000000001   -0.000000000000001
17    2.700000000000000    0.000000000000000    2.700000000000000   -0.005685007045870   -0.002960645611638    0.002960645611624
19    2.700000000000000    2.700000000000000    0.000000000000000   -0.005685007045870    0.002960645611624   -0.002960645611638
33    5.400000000000000    0.000000000000000    0.000000000000000   -0.000000000000007   -0.000000000000014   -0.000000000000014
35    5.400000000000000    2.700000000000000    2.700000000000000   -0.000000000000010   -0.000000000000004   -0.000000000000004
41    6.750000000000000    1.350000000000000    1.350000000000000   -0.000000000000000   -0.000000000000000   -0.000000000000000
1   -0.039999999999999    0.000000000000000    0.000000000000000    0.737508570567910   -0.005998694712975   -0.005998694712975
3   -0.039999999999999    2.700000000000000    2.700000000000000    0.737508570567906    0.005998694712956    0.005998694712956
49    8.100000000000000    0.000000000000000    2.700000000000000   -0.006127650177880   -0.009335429266811    0.009335429266797
51    8.100000000000000    2.700000000000000    0.000000000000000   -0.006127650177877    0.009335429266794   -0.009335429266809
5    0.000000000000000    5.400000000000000    0.000000000000000    0.012345798452973   -0.005911531622232    0.005911531622211
13    1.350000000000000    6.750000000000000    1.350000000000000   -0.000000000000000   -0.000000000000000   -0.000000000000000
21    2.700000000000000    5.400000000000000    2.700000000000000   -0.002842503522937   -0.002718105642973   -0.005678751254594
27    4.050000000000000    4.050000000000000    1.350000000000000    0.000000000000007    0.000000000000007   -0.000000000000001
37    5.400000000000000    5.400000000000000    0.000000000000000   -0.000000000000005   -0.000000000000010   -0.000000000000011
45    6.750000000000000    6.750000000000000    1.350000000000000   -0.000000000000000   -0.000000000000000   -0.000000000000001
53    8.100000000000000    5.400000000000000    2.700000000000000   -0.003063825088940    0.003202127744731   -0.006133301522066
59    9.449999999999999    4.050000000000000    1.350000000000000   -0.191764025366403    0.122990537448987   -0.122990537448980
7    0.000000000000000    8.100000000000000    2.700000000000000    0.012345798452976    0.005911531622228   -0.005911531622229
23    2.700000000000000    8.100000000000000    0.000000000000000   -0.002842503522935    0.002718105642964    0.005678751254577
31    4.050000000000000    9.449999999999999    1.350000000000000    0.000000000000007    0.000000000000015   -0.000000000000001
39    5.400000000000000    8.100000000000000    2.700000000000000   -0.000000000000007    0.000000000000000   -0.000000000000006
55    8.100000000000000    8.100000000000000    0.000000000000000   -0.003063825088937   -0.003202127744740    0.006133301522049
63    9.449999999999999    9.449999999999999    1.350000000000000   -0.191764025366402   -0.122990537448965    0.122990537448978
2    0.000000000000000    0.000000000000000    5.400000000000000    0.012345798452976    0.005911531622214   -0.005911531622235
10    1.350000000000000    1.350000000000000    6.750000000000000   -0.000000000000000   -0.000000000000000   -0.000000000000000
20    2.700000000000000    2.700000000000000    5.400000000000000   -0.002842503522937   -0.005678751254594   -0.002718105642973
25    4.050000000000000    1.350000000000000    4.050000000000000    0.000000000000007   -0.000000000000001    0.000000000000007
34    5.400000000000000    0.000000000000000    5.400000000000000   -0.000000000000005   -0.000000000000011   -0.000000000000010
42    6.750000000000000    1.350000000000000    6.750000000000000   -0.000000000000000   -0.000000000000001   -0.000000000000000
52    8.100000000000000    2.700000000000000    5.400000000000000   -0.003063825088940   -0.006133301522066    0.003202127744730
57    9.449999999999999    1.350000000000000    4.050000000000000   -0.191764025366403   -0.122990537448980    0.122990537448987
6    0.000000000000000    5.400000000000000    5.400000000000000    0.011285562553830    0.005882561428204    0.005882561428199
11    1.350000000000000    4.050000000000000    4.050000000000000   -0.183688657720028   -0.115747462951714   -0.115747462951714
14    1.350000000000000    6.750000000000000    6.750000000000000   -0.000000000000001   -0.000000000000000   -0.000000000000000
28    4.050000000000000    4.050000000000000    6.750000000000000    0.000000000000010    0.000000000000010   -0.000000000000002
29    4.050000000000000    6.750000000000000    4.050000000000000    0.000000000000010   -0.000000000000002    0.000000000000010
38    5.400000000000000    5.400000000000000    5.400000000000000   -0.000000000000010   -0.000000000000010   -0.000000000000010
43    6.750000000000000    4.050000000000000    4.050000000000000   -0.000000000000002    0.000000000000010    0.000000000000010
46    6.750000000000000    6.750000000000000    6.750000000000000   -0.000000000000000   -0.000000000000000   -0.000000000000000
60    9.449999999999999    4.050000000000000    6.750000000000000    0.000000000000015    0.000000000000008    0.000000000000000
61    9.449999999999999    6.750000000000000    4.050000000000000    0.000000000000018   -0.000000000000003    0.000000000000010
15    1.350000000000000    9.449999999999999    4.050000000000000   -0.000000000000001    0.000000000000015    0.000000000000007
24    2.700000000000000    8.100000000000000    5.400000000000000   -0.000000000000006    0.000000000000000   -0.000000000000008
32    4.050000000000000    9.449999999999999    6.750000000000000    0.000000000000008    0.000000000000015    0.000000000000000
47    6.750000000000000    9.449999999999999    4.050000000000000   -0.000000000000000    0.000000000000020    0.000000000000008
56    8.100000000000000    8.100000000000000    5.400000000000000    0.000000000000000    0.000000000000000   -0.000000000000008
64    9.449999999999999    9.449999999999999    6.750000000000000    0.000000000000015    0.000000000000015   -0.000000000000000
4    0.000000000000000    2.700000000000000    8.100000000000000    0.012345798452976   -0.005911531622229    0.005911531622228
18    2.700000000000000    0.000000000000000    8.100000000000000   -0.002842503522937    0.005678751254580    0.002718105642967
26    4.050000000000000    1.350000000000000    9.449999999999999    0.000000000000007   -0.000000000000001    0.000000000000015
36    5.400000000000000    2.700000000000000    8.100000000000000   -0.000000000000007   -0.000000000000006    0.000000000000000
50    8.100000000000000    0.000000000000000    8.100000000000000   -0.003063825088942    0.006133301522049   -0.003202127744735
58    9.449999999999999    1.350000000000000    9.449999999999999   -0.191764025366402    0.122990537448978   -0.122990537448965
12    1.350000000000000    4.050000000000000    9.449999999999999   -0.000000000000001    0.000000000000007    0.000000000000015
22    2.700000000000000    5.400000000000000    8.100000000000000   -0.000000000000006   -0.000000000000007    0.000000000000000
30    4.050000000000000    6.750000000000000    9.449999999999999    0.000000000000005    0.000000000000003    0.000000000000018
44    6.750000000000000    4.050000000000000    9.449999999999999   -0.000000000000003    0.000000000000010    0.000000000000018
54    8.100000000000000    5.400000000000000    8.100000000000000    0.000000000000000   -0.000000000000008    0.000000000000000
62    9.449999999999999    6.750000000000000    9.449999999999999    0.000000000000015   -0.000000000000000    0.000000000000021
8    0.000000000000000    8.100000000000000    8.100000000000000    0.011285562553833   -0.005882561428209   -0.005882561428209
16    1.350000000000000    9.449999999999999    9.449999999999999   -0.183688657720034    0.115747462951741    0.115747462951741
40    5.400000000000000    8.100000000000000    8.100000000000000   -0.000000000000008    0.000000000000000    0.000000000000000
48    6.750000000000000    9.449999999999999    9.449999999999999   -0.000000000000000    0.000000000000021    0.000000000000015
