ITEM: TIMESTEP
0
ITEM: NUMBER OF ATOMS
64
ITEM: BOX BOUNDS xy xz yz pp pp pp
0.0000000000000000e+00 1.0800000000000001e+01 0.0000000000000000e+00
0.0000000000000000e+00 1.0800000000000001e+01 0.0000000000000000e+00
0.0000000000000000e+00 1.0800000000000001e+01 0.0000000000000000e+00
ITEM: ATOMS id xu yu zu fx fy fz
3    0.000000000000000    2.700000000000000    2.700000000000000    0.192904097392719   -0.109866836145711   -0.109866836145711
9    1.390000000000000    1.350000000000000    1.350000000000000   -0.902569294607490   -0.108397333306893   -0.108397333306893
17    2.700000000000000    0.000000000000000    2.700000000000000    0.188925809706620   -0.128402240498398    0.120424387005013
19    2.700000000000000    2.700000000000000    0.000000000000000    0.188925809706620    0.120424387005013   -0.128402240498398
33    5.400000000000000    0.000000000000000    0.000000000000000   -0.000000000000007   -0.000000000000014   -0.000000000000014
35    5.400000000000000    2.700000000000000    2.700000000000000   -0.000000000000010   -0.000000000000004   -0.000000000000004
41    6.750000000000000    1.350000000000000    1.350000000000000   -0.000000000000000   -0.000000000000000   -0.000000000000000
1   -0.039999999999999    0.000000000000000    0.000000000000000    0.902569294607469    0.108397333306881    0.108397333306881
49    8.100000000000000    0.000000000000000    2.700000000000000   -0.003063825088940   -0.006133301522073    0.003202127744737
51    8.100000000000000    2.700000000000000    0.000000000000000   -0.003063825088937    0.003202127744734   -0.006133301522071
5    0.000000000000000    5.400000000000000    0.000000000000000   -0.000000000000014   -0.000000000000007   -0.000000000000014
13    1.350000000000000    6.750000000000000    1.350000000000000   -0.000000000000000   -0.000000000000000   -0.000000000000000
21    2.700000000000000    5.400000000000000    2.700000000000000   -0.000000000000004   -0.000000000000010   -0.000000000000004
27    4.050000000000000    4.050000000000000    1.350000000000000    0.003063825088948    0.003202127744745   -0.006133301522061
37    5.400000000000000    5.400000000000000    0.000000000000000   -0.000000000000005   -0.000000000000010   -0.000000000000011
45    6.750000000000000    6.750000000000000    1.350000000000000   -0.000000000000000   -0.000000000000000   -0.000000000000001
53    8.100000000000000    5.400000000000000    2.700000000000000    0.000000000000000   -0.000000000000007   -0.000000000000006
59    9.449999999999999    4.050000000000000    1.350000000000000    0.002842503522948   -0.002718105642956   -0.005678751254591
7    0.000000000000000    8.100000000000000    2.700000000000000    0.012345798452976    0.005911531622228   -0.005911531622229
23    2.700000000000000    8.100000000000000    0.000000000000000   -0.002842503522935    0.002718105642964    0.005678751254577
31    4.050000000000000    9.449999999999999    1.350000000000000    0.003063825088947   -0.003202127744723    0.006133301522059
39    5.400000000000000    8.100000000000000    2.700000000000000   -0.000000000000007    0.000000000000000   -0.000000000000006
55    8.100000000000000    8.100000000000000    0.000000000000000   -0.003063825088937   -0.003202127744740    0.006133301522049
63    9.449999999999999    9.449999999999999    1.350000000000000   -0.188925809706604   -0.120424387004999    0.128402240498384
2    0.000000000000000    0.000000000000000    5.400000000000000   -0.000000000000011   -0.000000000000011   -0.000000000000010
10    1.350000000000000    1.350000000000000    6.750000000000000   -0.000000000000000   -0.000000000000000   -0.000000000000000
20    2.700000000000000    2.700000000000000    5.400000000000000   -0.000000000000004   -0.000000000000004   -0.000000000000010
25    4.050000000000000    1.350000000000000    4.050000000000000    0.003063825088948   -0.006133301522061    0.003202127744745
34    5.400000000000000    0.000000000000000    5.400000000000000   -0.000000000000005   -0.000000000000011   -0.000000000000010
42    6.750000000000000    1.350000000000000    6.750000000000000   -0.000000000000000   -0.000000000000001   -0.000000000000000
52    8.100000000000000    2.700000000000000    5.400000000000000    0.000000000000000   -0.000000000000006   -0.000000000000008
57    9.449999999999999    1.350000000000000    4.050000000000000    0.002842503522948   -0.005678751254591   -0.002718105642956
6    0.000000000000000    5.400000000000000    5.400000000000000   -0.000000000000011   -0.000000000000005   -0.000000000000010
11    1.350000000000000    4.050000000000000    4.050000000000000   -0.011285562553842    0.005882561428216    0.005882561428216
14    1.350000000000000    6.750000000000000    6.750000000000000   -0.000000000000001   -0.000000000000000   -0.000000000000000
28    4.050000000000000    4.050000000000000    6.750000000000000    0.000000000000010    0.000000000000010   -0.000000000000002
29    4.050000000000000    6.750000000000000    4.050000000000000    0.000000000000010   -0.000000000000002    0.000000000000010
38    5.400000000000000    5.400000000000000    5.400000000000000   -0.000000000000010   -0.000000000000010   -0.000000000000010
43    6.750000000000000    4.050000000000000    4.050000000000000   -0.000000000000002    0.000000000000010    0.000000000000010
46    6.750000000000000    6.750000000000000    6.750000000000000   -0.000000000000000   -0.000000000000000   -0.000000000000000
60    9.449999999999999    4.050000000000000    6.750000000000000    0.000000000000015    0.000000000000008    0.000000000000000
61    9.449999999999999    6.750000000000000    4.050000000000000    0.000000000000018   -0.000000000000003    0.000000000000010
15    1.350000000000000    9.449999999999999    4.050000000000000   -0.012345798452988    0.005911531622240   -0.005911531622218
24    2.700000000000000    8.100000000000000    5.400000000000000   -0.000000000000006    0.000000000000000   -0.000000000000008
32    4.050000000000000    9.449999999999999    6.750000000000000    0.000000000000008    0.000000000000015    0.000000000000000
47    6.750000000000000    9.449999999999999    4.050000000000000   -0.000000000000000    0.000000000000020    0.000000000000008
56    8.100000000000000    8.100000000000000    5.400000000000000    0.000000000000000    0.000000000000000   -0.000000000000008
64    9.449999999999999    9.449999999999999    6.750000000000000    0.000000000000015    0.000000000000015   -0.000000000000000
4    0.000000000000000    2.700000000000000    8.100000000000000    0.012345798452976   -0.005911531622229    0.005911531622228
18    2.700000000000000    0.000000000000000    8.100000000000000   -0.002842503522937    0.005678751254580    0.002718105642967
26    4.050000000000000    1.350000000000000    9.449999999999999    0.003063825088947    0.006133301522059   -0.003202127744723
36    5.400000000000000    2.700000000000000    8.100000000000000   -0.000000000000007   -0.000000000000006    0.000000000000000
50    8.100000000000000    0.000000000000000    8.100000000000000   -0.003063825088942    0.006133301522049   -0.003202127744735
58    9.449999999999999    1.350000000000000    9.449999999999999   -0.188925809706604    0.128402240498384   -0.120424387004999
12    1.350000000000000    4.050000000000000    9.449999999999999   -0.012345798452988   -0.005911531622218    0.005911531622240
22    2.700000000000000    5.400000000000000    8.100000000000000   -0.000000000000006   -0.000000000000007    0.000000000000000
30    4.050000000000000    6.750000000000000    9.449999999999999    0.000000000000005    0.000000000000003    0.000000000000018
44    6.750000000000000    4.050000000000000    9.449999999999999   -0.000000000000003    0.000000000000010    0.000000000000018
54    8.100000000000000    5.400000000000000    8.100000000000000    0.000000000000000   -0.000000000000008    0.000000000000000
62    9.449999999999999    6.750000000000000    9.449999999999999    0.000000000000015   -0.000000000000000    0.000000000000021
8    0.000000000000000    8.100000000000000    8.100000000000000    0.011285562553833   -0.005882561428209   -0.005882561428209
16    1.350000000000000    9.449999999999999    9.449999999999999   -0.192904097392730    0.109866836145722    0.109866836145722
40    5.400000000000000    8.100000000000000    8.100000000000000   -0.000000000000008    0.000000000000000    0.000000000000000
48    6.750000000000000    9.449999999999999    9.449999999999999   -0.000000000000000    0.000000000000021    0.000000000000015
