ITEM: TIMESTEP
0
ITEM: NUMBER OF ATOMS
64
ITEM: BOX BOUNDS xy xz yz pp pp pp
0.0000000000000000e+00 1.0800000000000001e+01 0.0000000000000000e+00
0.0000000000000000e+00 1.0800000000000001e+01 0.0000000000000000e+00
0.0000000000000000e+00 1.0800000000000001e+01 0.0000000000000000e+00
ITEM: ATOMS id xu yu zu fx fy fz
1    0.040000000000000    0.000000000000000    0.000000000000000   -0.740684420709720    0.005734560163972    0.005734560163962
3    0.040000000000000    2.700000000000000    2.700000000000000   -0.740684420709715   -0.005734560163983   -0.005734560163983
9    1.350000000000000    1.350000000000000    1.350000000000000    0.385669378032775   -0.000000000000000   -0.000000000000000
17    2.700000000000000    0.000000000000000    2.700000000000000    0.006127650177877    0.002931173777311   -0.002931173777325
19    2.700000000000000    2.700000000000000    0.000000000000000    0.006127650177877   -0.002931173777325    0.002931173777311
33    5.400000000000000    0.000000000000000    0.000000000000000   -0.000000000000007   -0.000000000000014   -0.000000000000014
35    5.400000000000000    2.700000000000000    2.700000000000000   -0.000000000000010   -0.000000000000004   -0.000000000000004
41    6.750000000000000    1.350000000000000    1.350000000000000   -0.000000000000000   -0.000000000000000   -0.000000000000000
49    8.100000000000000    0.000000000000000    2.700000000000000    0.005685007045868    0.008396856897540   -0.008396856897555
51    8.100000000000000    2.700000000000000    0.000000000000000    0.005685007045871   -0.008396856897558    0.008396856897543
5    0.000000000000000    5.400000000000000    0.000000000000000   -0.011285562553855    0.005882561428202   -0.005882561428223
13    1.350000000000000    6.750000000000000    1.350000000000000   -0.000000000000000   -0.000000000000000   -0.000000000000000
21    2.700000000000000    5.400000000000000    2.700000000000000    0.003063825088937    0.003202127744728    0.006133301522056
27    4.050000000000000    4.050000000000000    1.350000000000000    0.000000000000007    0.000000000000007   -0.000000000000001
37    5.400000000000000    5.400000000000000    0.000000000000000   -0.000000000000005   -0.000000000000010   -0.000000000000011
45    6.750000000000000    6.750000000000000    1.350000000000000   -0.000000000000000   -0.000000000000000   -0.000000000000001
53    8.100000000000000    5.400000000000000    2.700000000000000    0.002842503522934   -0.002718105642971    0.005678751254584
59    9.449999999999999    4.050000000000000    1.350000000000000    0.183688657720049   -0.115747462951718    0.115747462951724
7    0.000000000000000    8.100000000000000    2.700000000000000   -0.011285562553852   -0.005882561428206    0.005882561428206
23    2.700000000000000    8.100000000000000    0.000000000000000    0.003063825088939   -0.003202127744738   -0.006133301522074
31    4.050000000000000    9.449999999999999    1.350000000000000    0.000000000000007    0.000000000000015   -0.000000000000001
39    5.400000000000000    8.100000000000000    2.700000000000000   -0.000000000000007    0.000000000000000   -0.000000000000006
55    8.100000000000000    8.100000000000000    0.000000000000000    0.002842503522937    0.002718105642961   -0.005678751254601
63    9.449999999999999    9.449999999999999    1.350000000000000    0.183688657720049    0.115747462951740   -0.115747462951726
2    0.000000000000000    0.000000000000000    5.400000000000000   -0.011285562553852   -0.005882561428220    0.005882561428199
10    1.350000000000000    1.350000000000000    6.750000000000000   -0.000000000000000   -0.000000000000000   -0.000000000000000
20    2.700000000000000    2.700000000000000    5.400000000000000    0.003063825088936    0.006133301522056    0.003202127744728
25    4.050000000000000    1.350000000000000    4.050000000000000    0.000000000000007   -0.000000000000001    0.000000000000007
34    5.400000000000000    0.000000000000000    5.400000000000000   -0.000000000000005   -0.000000000000011   -0.000000000000010
42    6.750000000000000    1.350000000000000    6.750000000000000   -0.000000000000000   -0.000000000000001   -0.000000000000000
52    8.100000000000000    2.700000000000000    5.400000000000000    0.002842503522934    0.005678751254584   -0.002718105642971
57    9.449999999999999    1.350000000000000    4.050000000000000    0.183688657720049    0.115747462951724   -0.115747462951718
6    0.000000000000000    5.400000000000000    5.400000000000000   -0.012345798452998   -0.005911531622230   -0.005911531622235
11    1.350000000000000    4.050000000000000    4.050000000000000    0.191764025366421    0.122990537448990    0.122990537448990
14    1.350000000000000    6.750000000000000    6.750000000000000   -0.000000000000001   -0.000000000000000   -0.000000000000000
28    4.050000000000000    4.050000000000000    6.750000000000000    0.000000000000010    0.000000000000010   -0.000000000000002
29    4.050000000000000    6.750000000000000    4.050000000000000    0.000000000000010   -0.000000000000002    0.000000000000010
38    5.400000000000000    5.400000000000000    5.400000000000000   -0.000000000000010   -0.000000000000010   -0.000000000000010
43    6.750000000000000    4.050000000000000    4.050000000000000   -0.000000000000002    0.000000000000010    0.000000000000010
46    6.750000000000000    6.750000000000000    6.750000000000000   -0.000000000000000   -0.000000000000000   -0.000000000000000
60    9.449999999999999    4.050000000000000    6.750000000000000    0.000000000000015    0.000000000000008    0.000000000000000
61    9.449999999999999    6.750000000000000    4.050000000000000    0.000000000000018   -0.000000000000003    0.000000000000010
15    1.350000000000000    9.449999999999999    4.050000000000000   -0.000000000000001    0.000000000000015    0.000000000000007
24    2.700000000000000    8.100000000000000    5.400000000000000   -0.000000000000006    0.000000000000000   -0.000000000000008
32    4.050000000000000    9.449999999999999    6.750000000000000    0.000000000000008    0.000000000000015    0.000000000000000
47    6.750000000000000    9.449999999999999    4.050000000000000   -0.000000000000000    0.000000000000020    0.000000000000008
56    8.100000000000000    8.100000000000000    5.400000000000000    0.000000000000000    0.000000000000000   -0.000000000000008
64    9.449999999999999    9.449999999999999    6.750000000000000    0.000000000000015    0.000000000000015   -0.000000000000000
4    0.000000000000000    2.700000000000000    8.100000000000000   -0.011285562553852    0.005882561428206   -0.005882561428206
18    2.700000000000000    0.000000000000000    8.100000000000000    0.003063825088937   -0.006133301522071   -0.003202127744735
26    4.050000000000000    1.350000000000000    9.449999999999999    0.000000000000007   -0.000000000000001    0.000000000000015
36    5.400000000000000    2.700000000000000    8.100000000000000   -0.000000000000007   -0.000000000000006    0.000000000000000
50    8.100000000000000    0.000000000000000    8.100000000000000    0.002842503522931   -0.005678751254601    0.002718105642966
58    9.449999999999999    1.350000000000000    9.449999999999999    0.183688657720054   -0.115747462951731    0.115747462951745
12    1.350000000000000    4.050000000000000    9.449999999999999   -0.000000000000001    0.000000000000007    0.000000000000015
22    2.700000000000000    5.400000000000000    8.100000000000000   -0.000000000000006   -0.000000000000007    0.000000000000000
30    4.050000000000000    6.750000000000000    9.449999999999999    0.000000000000005    0.000000000000003    0.000000000000018
44    6.750000000000000    4.050000000000000    9.449999999999999   -0.000000000000003    0.000000000000010    0.000000000000018
54    8.100000000000000    5.400000000000000    8.100000000000000    0.000000000000000   -0.000000000000008    0.000000000000000
62    9.449999999999999    6.750000000000000    9.449999999999999    0.000000000000015   -0.000000000000000    0.000000000000021
8    0.000000000000000    8.100000000000000    8.100000000000000   -0.012345798452995    0.005911531622226    0.005911531622226
16    1.350000000000000    9.449999999999999    9.449999999999999    0.191764025366420   -0.122990537448967   -0.122990537448967
40    5.400000000000000    8.100000000000000    8.100000000000000   -0.000000000000008    0.000000000000000    0.000000000000000
48    6.750000000000000    9.449999999999999    9.449999999999999   -0.000000000000000    0.000000000000021    0.000000000000015
