LAMMPS Description # full

6 atoms
5 bonds
4 angles
4 dihedrals
1 impropers

4 atom types
3 bond types
2 angle types
2 dihedral types
1 improper types

0 6.5890 xlo xhi
0 6.5890 ylo yhi
0 6.5890 zlo zhi

Masses

1 15.0350 # C CH3 (beta) Ala 7 #
2 12.0110 # C C Ketone Carbonyl 127 #
3 15.9990 # O O Ketone Carbonyl 128 #
4 14.0270 # C CH2 Diethyl Ketone 130 #

Pair Coeffs

1 0.1600 3.9100
2 0.1050 3.7500
3 0.2100 2.9600
4 0.1180 3.9050

Bond Coeffs

1 570.0000 1.2290
2 317.0000 1.5220
3 260.0000 1.5260

Angle Coeffs

1 80.0000 120.4000
2 63.0000 112.4000

Dihedral Coeffs

1 0.0000 0.0000 0.0000 0.0000
2 0.0000 0.0000 0.0000 0.0000

Improper Coeffs

1 10.5000 -1 2

Atoms

1 1 1 0.0000 2.2819 3.8132 -0.0955
2 1 4 0.0620 2.8575 2.6262 -0.8627
3 1 2 0.3000 1.9883 1.3825 -0.7442
4 1 3 -0.4240 2.0892 0.4728 -1.5644
5 1 4 0.0620 0.9927 1.2788 0.4023
6 1 1 0.0000 0.4718 2.6431 0.8452

Bonds

1 3 1 2
2 2 2 3
3 1 3 4
4 2 3 5
5 3 5 6

Angles

1 2 1 2 3
2 1 2 3 4
3 1 4 3 5
4 2 3 5 6

Dihedrals

1 1 1 2 3 4
2 2 1 2 3 5
3 2 2 3 5 6
4 1 4 3 5 6

Impropers

1 1 2 4 3 5

