LAMMPS Description # full

6 atoms
5 bonds
5 angles
4 dihedrals
1 impropers

4 atom types
3 bond types
3 angle types
2 dihedral types
1 improper types

0 6.5890 xlo xhi
0 6.5890 ylo yhi
0 6.5890 zlo zhi

Masses

1 15.0350 # C CH3 (beta) Ala 7 #
2 12.0110 # C C Ketone Carbonyl 127 #
3 15.9990 # O O Ketone Carbonyl 128 #
4 14.0270 # C CH2 Diethyl Ketone 130 #

Pair Coeffs

1 0.1600 3.9100
2 0.1050 3.7500
3 0.2100 2.9600
4 0.1180 3.9050

Bond Coeffs

1 570.0000 1.2290
2 317.0000 1.5220
3 260.0000 1.5260

Angle Coeffs

1 80.0000 120.4000
2 0.0000 119.2000
3 63.0000 112.4000

Dihedral Coeffs

1 0.0000 0.0000 0.0000 0.0000
2 0.0000 0.0000 0.0000 0.0000

Improper Coeffs

1 10.5000 -1 2

Atoms

1 1 1 0.0000 4.3491 -0.3457 5.2019
2 1 4 0.0620 4.0226 0.0830 6.6296
3 1 2 0.3000 2.8499 1.0513 6.6906
4 1 3 -0.4240 2.2275 1.2091 7.7385
5 1 4 0.0620 2.4572 1.8218 5.4381
6 1 1 0.0000 2.7700 1.0506 4.1590

Bonds

1 3 1 2
2 2 2 3
3 1 3 4
4 2 3 5
5 3 5 6

Angles

1 3 1 2 3
2 1 2 3 4
3 2 2 3 5
4 1 4 3 5
5 3 3 5 6

Dihedrals

1 1 1 2 3 4
2 2 1 2 3 5
3 2 2 3 5 6
4 1 4 3 5 6

Impropers

1 1 2 5 3 4

