LAMMPS Description # full

1 atoms
0 bonds
0 angles
0 dihedrals
0 impropers

1 atom types
0 bond types
0 angle types
0 dihedral types
0 improper types

0 44.0000 xlo xhi
0 44.0000 ylo yhi
0 44.0000 zlo zhi

Masses

1 4.0030 # Helium Atom He 209 #

Pair Coeffs

1 0.0200 2.5560

Atoms

1 1 1 0.0000 -0.8291 -1.5734 0.9904

