LAMMPS Description # full

3 atoms
2 bonds
1 angles
0 dihedrals
0 impropers

2 atom types
1 bond types
1 angle types
0 dihedral types
0 improper types

0 3.9111 xlo xhi
0 3.9111 ylo yhi
0 3.9111 zlo zhi

Masses

1 15.9990 # O O Water (SPCE) 214 #
2 1.0080 # H H Water (SPCE) 215 #

Pair Coeffs

1 0.1554 3.1656
2 0.0000 0.0000

Bond Coeffs

1 527.2000 1.0000

Angle Coeffs

1 37.9500 109.4700

Atoms

1 1 1 -0.8476 -0.5363 1.9413 -2.1712
2 1 2 0.4238 -1.0970 1.1537 -1.9158
3 1 2 0.4238 -0.0639 1.7492 -3.0314

Bonds

1 1 1 2
2 1 1 3

Angles

1 1 2 1 3

