LAMMPS (22 Aug 2018)
### INITIALIZATION ###
units        real
#processors 32 1 1

atom_style	 full
pair_style	 lj/class2/coul/cut 10.0 10.0
pair_modify  mix sixthpower
bond_style   morse
#angle_style  class2
angle_style quartic
dihedral_style multi/harmonic
#improper_style class2
read_data	./dataCrystal.lammps
  orthogonal box = (0 0 0) to (123.388 29.52 24.72)
  8 by 2 by 2 MPI processor grid
  reading atoms ...
  4800 atoms
  scanning bonds ...
  1 = max bonds/atom
  scanning angles ...
  1 = max angles/atom
  scanning dihedrals ...
  1 = max dihedrals/atom
  reading bonds ...
  4800 bonds
  reading angles ...
  4800 angles
  reading dihedrals ...
  4800 dihedrals
  2 = max # of 1-2 neighbors
  2 = max # of 1-3 neighbors
  4 = max # of 1-4 neighbors
  6 = max # of special neighbors

dump 1 all atom 1000000 vmd.atom
dump_modify 1 sort id
dump 2 all xyz 1000000 vmd.xyz
dump_modify 2 element  C



restart 100000 rstrt_1 rstrt_2
### SETTINGS ###
neighbor    2.5 bin
neigh_modify	delay 0 every 50 check no

timestep 0.25
thermo		1000
thermo_style custom step temp epair emol etotal press  lx ly lz
thermo_modify flush yes

change_box all x scale 1.05 remap
  orthogonal box = (-3.0847 0 0) to (126.473 29.52 24.72)

fix 13 all box/relax x 0.0 y 0.0 z 0.0
minimize 1.0e-8 1.0e-8 10000 10000000
WARNING: Using 'neigh_modify every 1 delay 0 check yes' setting during minimization (../min.cpp:168)
Neighbor list info ...
  update every 1 steps, delay 0 steps, check yes
  max neighbors/atom: 2000, page size: 100000
  master list distance cutoff = 12.5
  ghost atom cutoff = 12.5
  binsize = 6.25, bins = 21 5 4
  1 neighbor lists, perpetual/occasional/extra = 1 0 0
  (1) pair lj/class2/coul/cut, perpetual
      attributes: half, newton on
      pair build: half/bin/newton
      stencil: half/bin/3d/newton
      bin: standard
WARNING: Inconsistent image flags (../domain.cpp:782)
Per MPI rank memory allocation (min/avg/max) = 10.07 | 10.07 | 10.07 Mbytes
Step Temp E_pair E_mol TotEng Press Lx Ly Lz 
       0            0   -4919.0055    37031.317    32112.311   -148215.23    129.55727        29.52        24.72 
    1000            0   -5686.6294    8694.2508    3007.6214   -38885.017    120.87889    27.038484    23.151275 
    1865            0   -4271.8794    1822.4336   -2449.4458   -82.011171    122.44954    25.019696    21.272631 
Loop time of 5.56355 on 32 procs for 1865 steps with 4800 atoms

95.4% CPU use with 32 MPI tasks x no OpenMP threads

Minimization stats:
  Stopping criterion = energy tolerance
  Energy initial, next-to-last, final = 
          32112.311126     -2449.44582798     -2449.44584322
  Force two-norm initial, final = 388149 2255.93
  Force max component initial, final = 331855 1019.19
  Final line search alpha, max atom move = 2.9943e-12 3.05176e-09
  Iterations, force evaluations = 1865 1938

MPI task timing breakdown:
Section |  min time  |  avg time  |  max time  |%varavg| %total
---------------------------------------------------------------
Pair    | 3.0483     | 3.4719     | 3.934      |  15.4 | 62.40
Bond    | 0.12985    | 0.13638    | 0.1436     |   1.5 |  2.45
Neigh   | 0.029295   | 0.030256   | 0.031531   |   0.5 |  0.54
Comm    | 0.80615    | 1.2881     | 1.7575     |  27.4 | 23.15
Output  | 6.804e-05  | 7.1236e-05 | 0.00013238 |   0.0 |  0.00
Modify  | 0          | 0          | 0          |   0.0 |  0.00
Other   |            | 0.6368     |            |       | 11.45

Nlocal:    150 ave 156 max 144 min
Histogram: 16 0 0 0 0 0 0 0 0 16
Nghost:    3810 ave 3816 max 3804 min
Histogram: 16 0 0 0 0 0 0 0 0 16
Neighs:    43200 ave 47848 max 38865 min
Histogram: 8 0 0 6 2 8 0 0 0 8

Total # of neighbors = 1382400
Ave neighs/atom = 288
Ave special neighs/atom = 6
Neighbor list builds = 11
Dangerous builds not checked
unfix 13

fix 		NPT all npt temp 0.1 0.1 25  x 0 0 2500  y 0 0 2500    z 0 0 2500
run 	1000000
WARNING: Inconsistent image flags (../domain.cpp:782)
Per MPI rank memory allocation (min/avg/max) = 8.452 | 8.453 | 8.453 Mbytes
Step Temp E_pair E_mol TotEng Press Lx Ly Lz 
    1865            0   -4271.8794    1822.4336   -2449.4458   -82.011171    122.44954    25.019696    21.272631 
    2000   0.85787613    -5825.924     1011.554   -4802.0982    790.28593    123.28764    27.372901    22.575337 
    3000   0.26228944   -5924.4734    1011.6232   -4909.0982   -4.7784287      123.291    27.272045    22.966645 
    4000   0.20429836   -5999.3533     1011.628   -4984.8029   -4.1716869     123.2899    26.802466    23.197666 
    5000   0.15409746   -6043.5874    1011.5889   -5029.7941  -0.79924756     123.2899    26.427033    23.414269 
    6000   0.12640011   -6084.3354    1011.5249   -5071.0023   -2.7507748    123.29094    26.101315    23.619139 
    7000   0.11090802   -6101.6707    1011.4485   -5088.6357  -0.29676143    123.29215    25.861585    23.782546 
    8000   0.10299884     -6116.92    1011.3869   -5104.0597  -0.15236732    123.29357    25.686543    23.903538 
    9000  0.099315448   -6120.6368    1011.3212   -5107.8949   0.60252292    123.29515     25.56602    23.991486 
   10000  0.098784289   -6115.3205    1011.2882   -5102.6192   -3.1126994      123.296    25.518965    24.034168 
   11000  0.098185579   -6119.5691    1011.2855   -5106.8791   -2.1715661    123.29602    25.503518    24.041907 
   12000  0.098599933   -6115.0627    1011.3036   -5102.3486    1.4207036     123.2954    25.547606    24.008824 
   13000  0.096330419    -6123.817    1011.3627   -5111.0763    -2.389822    123.29397      25.6306    23.940596 
   14000    0.1054453   -6112.0159     1011.395   -5099.1126    1.0032627     123.2938    25.702718    23.896835 
   15000   0.10028471   -6119.2797    1011.3389   -5106.5062    3.7636092    123.29469    25.585189     23.97788 
   16000  0.099024559   -6121.8365    1011.3063   -5109.1137    5.5578588    123.29529    25.518669    24.024605 
   17000  0.099586243   -6119.4895    1011.2838   -5106.7811   -2.8277492    123.29624    25.499672    24.046398 
   18000  0.099767396   -6116.4139    1011.2931   -5103.6936    0.7642911    123.29572    25.526313    24.024398 
   19000  0.099576705   -6119.3149    1011.3202   -5106.5703    1.7318464    123.29552    25.535001    24.020466 
   20000  0.099688147   -6125.9911    1011.3123   -5113.2528   0.26615226    123.29546    25.504925     24.03815 
   21000   0.10024772   -6125.3649    1011.3163   -5112.6146  -0.52246259     123.2954    25.515361    24.030971 
   22000   0.10027465   -6121.7106    1011.3176   -5108.9586   -3.0596957    123.29531    25.551385    24.005144 
   23000  0.099657058   -6116.3052    1011.2976   -5103.5821   -4.5247912    123.29585    25.530717    24.025856 
   24000  0.099659871   -6117.7937     1011.286   -5105.0821   0.84917337    123.29599    25.502467    24.042757 
   25000  0.099163698   -6120.0126    1011.3013   -5107.2928    -1.237055    123.29572    25.522887    24.027504 
   26000  0.096092763   -6122.7798    1011.3414   -5110.0638   -2.6252769    123.29473    25.588618    23.975926 
   27000  0.092776012   -6111.3641     1011.401   -5098.6359   -3.1254903    123.29374    25.713431    23.890811 
   28000   0.10467288   -6112.2927    1011.3718   -5099.4236  -0.63499394     123.2937    25.689032     23.90451 
   29000   0.09997448   -6119.7457    1011.3338   -5106.9818   -2.5137857    123.29491    25.577533    23.987852 
   30000  0.099244693   -6121.8218    1011.3094   -5109.0928   0.79468362    123.29551    25.516778    24.031028 
   31000    0.0985449   -6119.2925    1011.2915   -5106.5914    2.2573883    123.29612    25.500496    24.044726 
   32000  0.099816099   -6116.6806    1011.2891   -5103.9637   0.56001441     123.2958    25.522386    24.027056 
   33000   0.10070698   -6120.3442    1011.3149   -5107.5886    1.2847123    123.29547    25.518902    24.031681 
   34000    0.1001424   -6126.0725    1011.3153   -5113.3247    2.1590323    123.29535    25.502204    24.039784 
   35000  0.099082959   -6129.6849    1011.3344   -5116.9331    1.0020628    123.29503    25.525479    24.021062 
   36000   0.10196741   -6119.1742    1011.3342   -5106.3814   0.48908998    123.29474    25.586568    23.977233 
   37000  0.099946071   -6116.7937    1011.3023   -5104.0617   0.80047468    123.29553    25.545343     24.00923 
   38000  0.099732137   -6119.5069     1011.285   -5106.7952   -1.2117938    123.29615    25.502284    24.043227 
   39000  0.098910422   -6117.2885    1011.2908   -5104.5827  -0.93146139    123.29585    25.513743    24.035426 
   40000  0.097769751   -6121.2715    1011.3332   -5108.5397   -2.7808486    123.29521    25.560757    24.000722 
   41000   0.10135456   -6119.6453    1011.3299   -5106.8655     1.811968    123.29479     25.57729    23.983654 
   42000   0.10049678   -6124.8633    1011.3153   -5112.1104   -2.6891031     123.2955    25.521153    24.028308 
   43000    0.1002405    -6126.158    1011.3127   -5113.4113   -2.9362455    123.29557    25.506166    24.039069 
   44000  0.098980897   -6120.1633    1011.2969   -5107.4505   -3.2152432    123.29574    25.521443    24.028476 
   45000   0.09906854   -6116.9343    1011.2863   -5104.2308  -0.43364247      123.296     25.51494    24.034207 
   46000   0.10087545   -6121.0563    1011.2885   -5108.3248   -1.7192577    123.29606     25.49996    24.044455 
   47000   0.10028491   -6121.1317    1011.3093   -5108.3879   -3.6963193    123.29546    25.530158    24.022756 
   48000  0.096726033   -6118.3565    1011.3425   -5105.6304  -0.47624591     123.2949    25.594684    23.976037 
   49000   0.10604952   -6111.9042    1011.3699   -5099.0173   0.95813827    123.29358    25.680102    23.910205 
   50000   0.10248336   -6118.7348     1011.336   -5105.9327     1.590147    123.29508    25.580843    23.984928 
   51000  0.099416896   -6121.5517    1011.3081   -5108.8215    3.3532903    123.29538    25.523655    24.023062 
   52000  0.098841581   -6121.2819    1011.2942   -5108.5738 -0.060325303    123.29601    25.499752      24.0448 
   53000   0.10017961   -6116.5954     1011.293   -5103.8693  -0.45497479    123.29577    25.523036    24.027888 
   54000   0.10043246   -6119.6139    1011.3164   -5106.8608    1.3398966    123.29545    25.531288     24.02232 
   55000  0.099233623   -6125.9746    1011.3158   -5113.2393    3.0874622    123.29541    25.503582     24.03868 
   56000  0.099031921   -6125.2246    1011.3196   -5112.4884   0.74330326    123.29526    25.515753    24.030328 
   57000   0.10174934   -6121.5774    1011.3213   -5108.8007   0.35043703     123.2953    25.549841    24.005626 
   58000     0.100055   -6116.0204     1011.298   -5103.2912   -0.3884864    123.29584    25.530738    24.024262 
   59000  0.098473613   -6119.6323    1011.2847    -5106.939   -2.1066577    123.29606    25.501706    24.043188 
   60000  0.099034593   -6118.4514    1011.2914   -5105.7434   0.46934312    123.29577    25.519475    24.028136 
   61000  0.096717055   -6119.6357    1011.3272    -5106.925   -2.0859122    123.29496    25.569359    23.994235 
   62000   0.10102913   -6118.7589    1011.3404   -5105.9733   -1.1395798    123.29487    25.590951    23.977588 
   63000  0.099275676    -6129.951    1011.3296   -5117.2013  -0.05780314    123.29519    25.520529    24.024244 
   64000  0.099365682   -6128.1077     1011.314   -5115.3722 -0.077159636    123.29541    25.501574     24.03936 
   65000   0.10081903   -6117.8782     1011.299    -5105.137  0.090820885     123.2958    25.517086    24.033809 
   66000   0.10034227   -6116.8117    1011.2932   -5104.0831   -1.8404963    123.29595    25.519168    24.032715 
   67000  0.098462192   -6125.9077    1011.3097   -5113.1895   -1.4428596    123.29558      25.5025       24.041 
   68000  0.099484842   -6126.7608    1011.3241   -5114.0137   -2.0174738    123.29521    25.522713    24.025673 
   69000   0.09616084    -6120.886    1011.3457   -5108.1647    4.7147263    123.29456    25.576396    23.984051 
   70000   0.10818721   -6111.3107     1011.436   -5098.3271   -1.8165027    123.29413    25.666058    23.932497 
   71000   0.10332246   -6119.0165    1011.6909   -5105.8476   0.49020157    123.29354    25.614491    23.956029 
   72000  0.099794607   -6124.4049    1011.4926   -5111.4847  -0.19797098    123.29486     25.53306    24.017161 
   73000  0.099071987   -6120.5892    1011.3163   -5107.8556 0.0075115309    123.29592    25.501577    24.043714 
   74000  0.099350753   -6117.2107    1011.3107   -5104.4788   0.39317892    123.29592    25.511317    24.036988 
   75000   0.10109186   -6118.0478     1011.471   -5105.1307  -0.61522195     123.2953    25.528542    24.024498 
   76000  0.099447587   -6124.3954     1011.439   -5111.5338  -0.40235083    123.29528    25.507988    24.037474 
   77000  0.099191086   -6125.6279    1011.3152   -5112.8938  -0.10183917    123.29543    25.509249    24.036174 
   78000   0.10121895   -6125.0057    1011.6266   -5111.9311   -2.8915902    123.29445    25.539841    24.012777 
   79000   0.10105225   -6117.1748    1012.1409   -5103.5883   0.82367261    123.29359    25.534291    24.020513 
   80000  0.098896904   -6119.4443    1011.6151   -5106.4144   0.25676511     123.2952    25.502347    24.041859 
   81000  0.099017652   -6117.5272    1011.2958   -5104.8149  -0.97768266    123.29603    25.507392    24.041269 
   82000  0.099840432   -6118.0971    1012.2801   -5104.3889   0.51506702    123.29326    25.525738    24.026381 
   83000   0.10202668   -6120.7569    1014.8068   -5104.4907    0.0383679    123.28727    25.511726    24.037198 
   84000   0.09988494   -6122.1301    1013.4522   -5107.2491  -0.32648985    123.29057    25.502347     24.04337 
   85000  0.099441521   -6120.2411    1011.4765   -5107.3421  0.079972581    123.29544    25.504785     24.04113 
   86000  0.099401508   -6119.7432    1011.5975   -5106.7238  0.058723722    123.29533    25.499681    24.044683 
   87000   0.10022864   -6120.1534    1012.6332   -5106.0864  -0.13670068    123.29274    25.503363    24.041798 
   88000   0.10074598    -6121.333    1012.0592   -5107.8326  0.016797478    123.29368    25.516721     24.03258 
   89000  0.099355926   -6124.4583    1011.3362   -5111.7008 -0.020790991    123.29538    25.509618    24.036966 
   90000  0.099730578   -6123.9377    1011.8771   -5110.6341  -0.22230494    123.29427    25.505972    24.039426 
   91000   0.10124775   -6121.1243    1012.1485   -5107.5275  0.063900124    123.29353    25.518689    24.029595 
   92000  0.099569004   -6119.2521    1011.4892   -5106.3385  0.076818247    123.29533    25.510433    24.036608 
   93000  0.099141224   -6120.2472    1011.3492   -5107.4798 -0.046111296    123.29585    25.501568    24.042893 
   94000  0.099070299   -6122.5871    1011.8099     -5109.36 -0.053378286     123.2943    25.518131    24.029262 
   95000   0.10205053   -6123.1738    1012.3353   -5109.3788   0.20817441    123.29201    25.537328    24.015511 
   96000   0.10019543   -6121.2263    1011.9231   -5107.8699 -0.065257441    123.29315    25.513161    24.038143 
   97000  0.099573583   -6120.8793    1011.4379    -5108.017 -0.074369893    123.29534    25.503443    24.043567 
   98000  0.099782439   -6120.3973    1011.3941   -5107.5758   0.13174024    123.29568    25.506943    24.038241 
   99000  0.099687994   -6119.6356     1011.536   -5106.6736 0.0059477976    123.29509    25.503434    24.041953 
  100000  0.099587816   -6120.5156    1011.4835   -5107.6076  0.034138397    123.29514    25.503834    24.043837 
  101000    0.1009059   -6121.8233    1011.5615   -5108.8184    0.2056574    123.29477    25.519725    24.032277 
  102000    0.1004938   -6124.3438     1012.084   -5110.8222   0.13088257    123.29266    25.514533    24.033019 
  103000  0.099524503   -6124.3601    1011.7685   -5111.1679  -0.13484715    123.29386    25.503297     24.04109 
  104000   0.09978963   -6120.9783     1011.347   -5108.2038  0.044788454    123.29574    25.505789    24.040231 
  105000   0.10015023    -6119.611    1011.6754   -5106.5029   0.01523176    123.29462    25.505551      24.0407 
  106000   0.09983316   -6121.5183    1011.8779   -5108.2123  -0.14362921    123.29365    25.502102    24.042407 
  107000  0.099816709   -6123.8997    1011.4382   -5111.0336  0.020703135    123.29511    25.510694     24.03567 
  108000    0.1000433   -6123.9594    1011.7276   -5110.8007   0.06330624    123.29402    25.513606    24.034622 
  109000   0.10055894   -6122.6147    1012.6414   -5108.5349 -0.049808186    123.29048    25.509319    24.038084 
  110000   0.10022209   -6120.9759    1011.9987   -5107.5435 -0.039225313    123.29301    25.515431    24.032336 
  111000  0.099379559   -6119.9208    1011.3409   -5107.1582 -0.003421759    123.29569    25.515238    24.032056 
  112000  0.099313449   -6120.9535    1011.6571   -5107.8757  -0.12855628    123.29438    25.515743    24.031211 
  113000   0.10042382    -6122.163     1012.224   -5108.5024 -0.069317499    123.29193    25.531032    24.019189 
  114000   0.10059871   -6122.3422    1011.8332     -5109.07  0.042304902    123.29351    25.544596    24.008647 
  115000  0.099532547    -6122.376    1011.4182   -5109.5339  0.042013342    123.29509    25.544106    24.006994 
  116000  0.099954708   -6122.9187    1011.5437   -5109.9452 -0.039647389    123.29449    25.551974     23.99811 
  117000  0.099968931   -6123.7067    1011.6449   -5110.6318  0.086861967    123.29415    25.560043    23.989897 
  118000  0.099756566   -6123.8068    1011.4347   -5110.9451  0.086145256    123.29492     25.56191    23.988769 
  119000   0.10004206    -6123.435    1011.5427   -5110.4612  -0.14720871    123.29434    25.569394    23.983464 
  120000   0.10003971   -6123.5231    1011.9482   -5110.1438 -0.096498791    123.29291    25.577891    23.976244 
  121000     0.100611   -6122.9429    1011.6729   -5109.8308 -0.097149078    123.29397    25.584949    23.971313 
  122000  0.099766422   -6123.5905    1011.4613   -5110.7021  -0.22709333    123.29462    25.580756    23.973438 
  123000  0.099798642    -6124.637    1011.5929   -5111.6165 -0.028419746    123.29414    25.575268    23.975988 
  124000   0.10003706   -6124.5295    1011.5155   -5111.5829    0.1936194    123.29453    25.571391    23.979256 
  125000  0.099597908   -6123.0263    1011.4289   -5110.1727   -0.0104172    123.29492    25.563786    23.987974 
  126000   0.10007436   -6122.7004    1011.6138    -5109.655   0.10548426    123.29408    25.556726    23.995807 
  127000   0.10071972   -6122.1742     1011.768   -5108.9654   0.22695415    123.29369    25.551594    24.001433 
  128000  0.099707089   -6122.3619    1011.5479   -5109.3877  0.077052494    123.29473     25.53982    24.010194 
  129000  0.099860791   -6121.6236     1011.399   -5108.7961 -0.053019082    123.29522    25.529843    24.018786 
  130000   0.09986502   -6121.1514    1011.5442   -5108.1787  0.021907054    123.29479    25.524648    24.023548 
  131000   0.10004053   -6121.4236    1011.6039   -5108.3886  0.057690397    123.29474    25.519366    24.028756 
  132000   0.10011863   -6121.6799    1011.4496   -5108.7981  -0.15017819    123.29517    25.513398    24.035298 
  133000   0.10004265    -6121.961    1011.5492   -5108.9807   0.21171542     123.2947    25.511496    24.036043 
  134000   0.10023565   -6120.8948    1011.6611   -5107.7999   0.13735868    123.29464    25.512155    24.035172 
  135000   0.09982905   -6120.2049    1011.4519    -5107.325  -0.10258587    123.29544    25.512153    24.035085 
  136000  0.099600018   -6120.9214    1011.4219   -5108.0748  0.053255693    123.29528    25.512151    24.034671 
  137000   0.10015622   -6121.5357    1011.6932   -5108.4098 -0.024002747    123.29442    25.517716    24.030832 
  138000   0.10045721   -6122.3038    1011.6774   -5109.1893 -0.031804938    123.29459    25.520926    24.028231 
  139000  0.099836264   -6121.8018    1011.4429   -5108.9307 -0.031433999    123.29515    25.511989    24.036792 
  140000   0.10001056   -6121.1208    1011.5306   -5108.1596  0.049979721    123.29492    25.511017    24.036869 
  141000   0.10014486   -6119.9486    1011.5696   -5106.9464  -0.36065255    123.29515    25.512625    24.034772 
  142000  0.099655891   -6120.2221     1011.393   -5107.4036  -0.48815303    123.29561     25.50941    24.037596 
  143000  0.099680964   -6121.1993    1011.4447   -5108.3286  -0.36053542    123.29516    25.513014    24.034788 
  144000   0.10045413   -6121.6375    1011.7159   -5108.4846   -0.4815332    123.29443    25.525514    24.024679 
  145000   0.10018481   -6122.0092    1011.5906   -5108.9855  -0.80464139     123.2948    25.535345    24.015754 
  146000  0.099673321   -6122.3297    1011.3995   -5109.5044    -0.696013    123.29505    25.541748    24.008654 
  147000  0.099995167   -6122.8248    1011.5294   -5109.8649  -0.96385567    123.29478    25.549017    24.002104 
  148000  0.099954335     -6123.26    1011.5827   -5110.2475  -0.89555983    123.29467    25.554862    23.995992 
  149000  0.099900646   -6122.8611    1011.4394   -5109.9926  -0.48675348    123.29483    25.556661    23.995302 
  150000  0.099977873   -6123.1015    1011.4815   -5110.1898   0.21828608    123.29468    25.562033    23.989642 
  151000   0.10016133   -6123.6153    1011.5921   -5110.5904   0.98400588    123.29454    25.573539    23.978507 
  152000   0.10008164   -6123.3408    1011.5374   -5110.3718    1.6358105    123.29432     25.57638    23.975745 
  153000  0.099837375   -6123.0713    1011.4589   -5110.1843     1.770183    123.29449    25.573764    23.978217 
  154000   0.10020156   -6123.4063    1011.5009    -5110.472    1.3416891    123.29469      25.5758    23.976387 
  155000  0.099928854   -6123.1898    1011.5715   -5110.1888   0.13801373    123.29438    25.565564    23.986454 
  156000   0.10010384   -6122.8933    1011.4452   -5110.0161   -1.3806942    123.29481    25.557395    23.995284 
  157000  0.099693984   -6122.5131     1011.409    -5109.678   -3.9175701    123.29513    25.560292    23.994957 
  158000  0.099980686   -6122.3218     1011.593   -5109.2986   -6.3791212    123.29443    25.557012    24.000012 
  159000   0.10013114   -6122.3727    1011.5423   -5109.3981   -7.0910743    123.29448    25.551939     24.00477 
  160000  0.099950685   -6122.0184    1011.3738   -5109.2148   -6.8860403    123.29529    25.546607    24.010224 
  161000   0.10001314   -6121.8936    1011.5306   -5108.9322   -5.7927579    123.29466    25.535868    24.018171 
  162000   0.10015641    -6120.653    1011.6024   -5107.6178   -5.0409699    123.29455    25.524566    24.029183 
  163000  0.099696419   -6120.2661    1011.3877   -5107.4522   -4.0478771    123.29538     25.52009    24.031615 
  164000   0.10001222   -6120.2922    1011.4294   -5107.4322   -3.4796132    123.29533    25.516914    24.034061 
  165000   0.10001189   -6120.7391    1011.6095    -5107.699   -2.4573024    123.29476    25.515665    24.034795 
  166000   0.09978955   -6121.3108    1011.4765   -5108.4068   -1.0580699    123.29509    25.516834    24.032502 
  167000   0.10015612   -6121.3297    1011.4283   -5108.4687   0.64283911    123.29519    25.518681    24.030025 
  168000   0.10025893   -6120.7196    1011.6178   -5107.6675    1.6033087    123.29456    25.520261    24.027433 
  169000  0.099593853   -6120.9482    1011.5435   -5107.9799    1.6481182    123.29481    25.517177    24.029935 
  170000   0.10007252   -6121.3397    1011.4244   -5108.4837    1.2542553    123.29513    25.515951    24.031614 
  171000   0.10046137    -6121.151    1011.6202   -5108.0937    1.1975234    123.29455    25.512607    24.034183 
  172000  0.099883111   -6120.8847     1011.606   -5107.8499    1.1081188     123.2948    25.508779     24.03743 
  173000    0.0996924   -6120.5442     1011.413   -5107.7051     1.129033    123.29532      25.5088    24.037109 
  174000   0.10008824   -6120.2507    1011.5299   -5107.2891   0.94174681    123.29499    25.511903    24.035431 
  175000   0.10025564   -6121.4283    1011.6691    -5108.325   0.93228205    123.29456    25.517769    24.029605 
  176000  0.099855289   -6121.9682    1011.5158    -5109.024   0.78362906    123.29476    25.525176    24.022833 
  177000  0.099929367   -6121.7645    1011.5037   -5108.8313   0.42201095    123.29481    25.535817     24.01438 
  178000    0.1001905   -6122.0936    1011.6971   -5108.9632   0.39344864     123.2943    25.542578    24.007846 
  179000   0.10018282   -6122.2638     1011.636   -5109.1947  0.067759947     123.2943    25.540026    24.010194 
  180000  0.099757592   -6122.3204    1011.4535   -5109.4399 -0.028740536    123.29486    25.544169     24.00589 
  181000  0.099770808   -6122.5671    1011.5217   -5109.6182  -0.18687626    123.29482    25.549027    24.001844 
  182000    0.1000601   -6122.7849    1011.6885    -5109.665 -0.099540034    123.29396    25.553264    23.997881 
  183000   0.10040331   -6123.3043    1011.5507   -5110.3174  -0.40297732     123.2943     25.56443    23.988206 
  184000  0.099689701   -6123.8714     1011.444   -5111.0013  -0.33869448    123.29486    25.570917    23.981348 
  185000  0.099709019    -6123.449     1011.641   -5110.3817 -0.031272276    123.29404    25.570078    23.982306 
  186000   0.10057539   -6122.9997    1011.6246   -5109.9364   0.12427596    123.29396    25.570054    23.983558 
  187000  0.099904419   -6123.5694    1011.4043    -5110.736   0.36201485    123.29495    25.563771    23.988126 
  188000  0.099786849   -6123.4005    1011.5289   -5110.4442   0.49300512    123.29452    25.556675    23.994004 
  189000   0.10003501   -6123.0902    1011.5879   -5110.0713   0.43180633     123.2942    25.556568    23.993634 
  190000   0.10001214   -6122.7612    1011.3717   -5109.9589   0.08347845    123.29514     25.55342    23.997469 
  191000  0.099614902    -6122.297    1011.4856   -5109.3864   0.24384106    123.29475    25.546405    24.004102 
  192000   0.10061097   -6122.2014    1011.6778   -5109.0844   -0.0646996    123.29398      25.5419    24.009777 
  193000  0.099972706   -6122.0785    1011.4421   -5109.2062    -0.166571     123.2949     25.53461    24.015739 
  194000  0.099847812   -6121.8401    1011.3873   -5109.0244  -0.48762557    123.29532    25.525653    24.023868 
  195000  0.099983777   -6120.9716    1011.5282   -5108.0131  -0.57844122    123.29476    25.523263    24.025687 
  196000  0.099816636   -6120.7565    1011.4401   -5107.8885   -0.9681095    123.29513    25.521866    24.027226 
  197000   0.10003564    -6121.069    1011.3908   -5108.2472   -1.3270672     123.2954    25.520335     24.02958 
  198000   0.10019381   -6121.5458    1011.5715    -5108.541   -1.2667222    123.29455    25.519377    24.030485 
  199000   0.10004548    -6121.835    1011.5563   -5108.8475   -1.7119832    123.29468    25.519558    24.031524 
  200000   0.10004022   -6121.1399    1011.4284   -5108.2803   -1.4626997    123.29529    25.515749    24.034183 
  201000   0.10004703   -6120.2468    1011.4642   -5107.3514   -1.3631157    123.29528     25.50876    24.040176 
  202000  0.099860206    -6119.951    1011.4507   -5107.0718   -1.6675728    123.29534    25.508166    24.040261 
  203000  0.099674484   -6120.8026    1011.4284   -5107.9483  -0.67108589    123.29525    25.511379     24.03591 
  204000   0.10023173   -6121.1377    1011.5209    -5108.183  0.090127273    123.29482    25.510832    24.038375 
  205000   0.10018837    -6121.093    1011.5789   -5108.0809    1.5795484    123.29448    25.512735    24.035282 
  206000  0.099952138   -6121.1835    1011.5098   -5108.2439    3.1764112    123.29494    25.514747    24.031537 
  207000  0.099691163   -6120.8457    1011.4289   -5107.9907    5.7719947    123.29528    25.514845    24.028482 
  208000  0.099926143   -6120.9629    1011.4303   -5108.1031    7.0414553    123.29515    25.512899    24.029242 
  209000  0.099963231   -6121.5221    1011.5304   -5108.5617    6.8437703    123.29474    25.515534    24.028124 
  210000   0.10055468   -6122.0393    1011.5709     -5109.03    7.3049801    123.29436    25.521038    24.022361 
  211000  0.099936546   -6122.2163    1011.4457    -5109.341    6.2840547    123.29489    25.520487    24.023136 
  212000  0.099661301   -6122.0983    1011.4138   -5109.2588    5.3801087    123.29497     25.52488    24.018443 
  213000   0.10020024   -6122.3015     1011.494   -5109.3742    4.3498924    123.29467     25.53245    24.012742 
  214000   0.10022492   -6123.0827    1011.4449   -5110.2041    3.1846285    123.29483    25.542256     24.00502 
  215000  0.099552313   -6123.3544    1011.4282   -5110.5021    1.9037473    123.29484    25.549434    23.999585 
  216000   0.10017374   -6122.9453    1011.5489   -5109.9634   0.81244627    123.29441     25.55458    23.997382 
  217000    0.1005949   -6122.6037    1011.4862   -5109.6784   0.31248016    123.29462    25.567795    23.986432 
  218000  0.099984394   -6123.2477    1011.4258   -5110.3917  -0.96898031    123.29488    25.569037    23.985275 
  219000   0.09961359    -6123.638    1011.4761    -5110.737   -1.2893984    123.29458    25.566349    23.985608 
  220000   0.09993199    -6123.683    1011.3974   -5110.8561  -0.96672393    123.29497    25.569465    23.983291 
  221000  0.099671284   -6123.0121    1011.4243    -5110.162  0.031762085    123.29481    25.570869    23.982344 
  222000   0.10045978   -6122.5251    1011.6306   -5109.4575    0.2436969    123.29398    25.564863    23.989988 
  223000   0.10016569   -6122.6945    1011.5099   -5109.7517   0.97586641    123.29445    25.567019    23.986535 
  224000  0.099903376   -6122.7517    1011.3691   -5109.9535    0.7927723    123.29515    25.560401    23.991317 
  225000  0.099690762   -6122.9222     1011.439   -5110.0572   0.74010763    123.29483    25.546399    24.002069 
  226000  0.099926084   -6122.3199    1011.4117   -5109.4787   0.44273473    123.29506    25.543376    24.006437 
  227000  0.099971173   -6122.4441    1011.3736   -5109.6404   0.43374144    123.29522    25.541573    24.008467 
  228000   0.10029301   -6122.1382    1011.4774   -5109.2261   0.10102627    123.29477    25.535243    24.014859 
  229000  0.099905455   -6121.7166    1011.4413   -5108.8461 -0.055650184    123.29498    25.536597    24.014187 
  230000   0.09991456   -6121.4853     1011.373    -5108.683   0.19373168    123.29531    25.532167    24.017794 
  231000  0.099995921   -6120.8798    1011.4578   -5107.9917 -0.052667216    123.29506    25.522378    24.026768 
  232000   0.10010797   -6121.4088    1011.4136   -5108.5631 -0.067744577    123.29525    25.517463    24.029938 
  233000  0.099597561   -6121.3363    1011.3558   -5108.5558 -0.073114722    123.29556    25.513064    24.034551 
  234000   0.10002674   -6120.6798    1011.4629    -5107.786  -0.31735294    123.29507    25.516247    24.033143 
  235000   0.10022176   -6120.3125    1011.4967   -5107.3821  -0.49841049    123.29493    25.519955    24.030147 
  236000  0.099764687   -6120.6648     1011.391   -5107.8466  -0.51943489     123.2954    25.517358    24.031846 
  237000  0.099610508   -6120.4952    1011.4033   -5107.6669   -0.4962589    123.29531    25.518105    24.030759 
  238000   0.10040929   -6120.7563    1011.4707   -5107.8493  -0.77172548    123.29507    25.515951    24.033637 
  239000   0.10018372   -6120.9434    1011.4411   -5108.0692  -0.49161095    123.29519    25.511164    24.037437 
  240000  0.099550654   -6120.5839    1011.3963   -5107.7635  -0.15009191    123.29539     25.51029    24.037799 
  241000   0.10017612   -6119.6782    1011.4115   -5106.8337 -0.078303416    123.29534    25.515443    24.033777 
  242000   0.10013432   -6120.0747    1011.4536   -5107.1887   0.34211186    123.29515     25.51632    24.032447 
  243000   0.10028457   -6120.0362    1011.4325   -5107.1691   0.78082087    123.29523    25.514759    24.034808 
  244000   0.10022561   -6121.1975    1011.4048    -5108.359    1.1671981    123.29523    25.517639    24.030685 
  245000  0.099855411   -6121.3962    1011.4481   -5108.5197    1.3778786    123.29512    25.515165    24.032475 
  246000  0.099823113   -6121.5194    1011.4289   -5108.6625    1.9454165     123.2951    25.516416    24.030272 
  247000   0.10007922   -6121.1584    1011.3752   -5108.3516    2.3861478    123.29524    25.524168    24.023888 
  248000  0.099929368    -6121.386    1011.4634   -5108.4931    3.0748051    123.29486    25.526616    24.021706 
  249000   0.10019722   -6121.6251    1011.4979   -5108.6939    4.6293974    123.29454    25.532405     24.01512 
  250000   0.10002218   -6121.9387    1011.3877   -5109.1202    5.6900675    123.29498    25.533837    24.013745 
  251000  0.099749292   -6122.1761    1011.4128   -5109.3364    7.4320173    123.29474    25.533925    24.011054 
  252000  0.099915479   -6122.4558    1011.4814   -5109.5451    8.1630847    123.29449    25.539838    24.005626 
  253000   0.10015644   -6122.9586     1011.398   -5110.1278    7.9783323    123.29472    25.546711    23.998669 
  254000  0.099689439   -6123.4457     1011.398   -5110.6217     6.067322    123.29486    25.553073    23.994531 
  255000   0.10043492   -6122.8891    1011.5306   -5109.9218    2.7314181    123.29443    25.564409    23.987984 
  256000  0.099960752   -6122.7507     1011.501   -5109.8198   -2.0422468    123.29463    25.566352    23.989572 
  257000    0.0998415   -6122.7665    1011.3836   -5109.9547   -6.5663352    123.29521    25.568285    23.989456 
  258000  0.099956233   -6123.5183    1011.4292   -5110.6592   -7.9377226    123.29503    25.567066    23.989064 
  259000   0.09986855   -6123.3637     1011.438    -5110.497   -6.5935745    123.29494    25.561843    23.992565 
  260000  0.099636252   -6123.1468    1011.3878   -5110.3337    -3.953044    123.29519    25.563313    23.990114 
  261000   0.10044992   -6122.3495    1011.5047   -5109.4079   -1.8758377    123.29476    25.559871    23.994298 
  262000   0.10006574   -6122.3677    1011.5605   -5109.3758 -0.019606487    123.29436    25.549949    24.000861 
  263000   0.10029083   -6122.2663    1011.4214   -5109.4102   0.34909158    123.29518    25.545074    24.005015 
  264000  0.099655878   -6122.2798    1011.3974   -5109.4568   0.74368604    123.29525    25.535848     24.01108 
  265000  0.099702179   -6121.6591    1011.4425   -5108.7904   0.62639892    123.29507    25.528114    24.019395 
  266000   0.10025487   -6121.8365    1011.4435   -5108.9588   0.88009789    123.29515    25.530269    24.017985 
  267000   0.10008821   -6121.6793    1011.4572   -5108.7904   0.37298853    123.29515    25.525909    24.023077 
  268000   0.10006931   -6122.0797    1011.4625   -5109.1858   0.34366393      123.295    25.521354     24.02672 
  269000   0.09979668   -6121.6336    1011.4482   -5108.7578   0.45665848     123.2952    25.520776    24.026586 
  270000   0.09972935   -6121.2129    1011.4343    -5108.352  0.015128642     123.2954    25.519396    24.028443 
  271000   0.10090595   -6120.9514    1011.4381   -5108.0698 -0.072527504    123.29519    25.519105    24.028931 
  272000  0.098054769   -6121.9637    1011.4638   -5109.0973  -0.18645617    123.29513    25.513942    24.033403 
  273000    0.0979023   -6121.8213    1011.4583   -5108.9625  -0.46445031    123.29524     25.51172    24.036301 
  274000   0.10100965    -6121.057    1011.4705   -5108.1415  -0.38962666    123.29512    25.512757    24.035747 
  275000   0.10297823   -6120.7882    1011.4919   -5107.8233  -0.46912944    123.29518    25.507397    24.039587 
  276000  0.099631923   -6119.8808    1011.4168   -5107.0388  -0.34834666    123.29557    25.507404    24.038843 
  277000  0.096603243   -6120.4687    1011.3849   -5107.7019  -0.55500022    123.29559    25.512258     24.03524 
  278000  0.098157308   -6121.2712    1011.5437   -5108.3233  -0.48297302    123.29478    25.515399    24.033593 
  279000   0.10032283   -6121.3655    1011.6369   -5108.2935  -0.45977362    123.29453    25.519293    24.030445 
  280000   0.10102044   -6121.5389     1011.434   -5108.6599  -0.90292127    123.29531    25.522388    24.027314 
  281000   0.10004527   -6121.0283     1011.406   -5108.1911  -0.71455039    123.29525    25.523049    24.025658 
  282000  0.099120657   -6120.9942    1011.5424   -5108.0339  -0.96572775    123.29493    25.521204    24.027848 
  283000   0.10153487   -6121.4685    1011.4515   -5108.5645  -0.97716513    123.29523    25.520879     24.02775 
  284000  0.098604134   -6121.9791    1011.3678   -5109.2007  -0.89950405    123.29535    25.526447     24.02264 
  285000  0.098314529   -6121.9656    1011.5352    -5109.024  -0.98764205    123.29478    25.533238    24.017226 
  286000  0.098777294   -6122.0605    1011.5429   -5109.1046  -0.95194067    123.29473    25.540014    24.010595 
  287000   0.10149608   -6122.6338    1011.3792   -5109.8027   -1.2488111    123.29528    25.547673    24.003901 
  288000  0.098567826   -6122.8518    1011.4565   -5109.9852  -0.85974284    123.29483    25.554771    23.995658 
  289000  0.099689341   -6123.1716    1011.5364   -5110.2092   -1.1579743    123.29466     25.55521     23.99624 
  290000   0.10128793   -6122.8305    1011.4105   -5109.9711  -0.63636238    123.29501    25.561312    23.990263 
  291000  0.099871842   -6123.2826    1011.4377   -5110.4162    -0.185738    123.29489    25.563343    23.988537 
  292000   0.10134801   -6123.8061    1011.5401   -5110.8161   0.18486542    123.29454    25.564106    23.985469 
  293000  0.097896638   -6123.3144    1011.4366   -5110.4774  -0.82642431    123.29508    25.568226    23.983459 
  294000  0.099188408    -6123.178    1011.4086   -5110.3505   -1.6370793    123.29487    25.567418    23.984656 
  295000   0.10066281   -6123.0663    1011.5715   -5110.0548   -3.0318902    123.29439    25.562595    23.991051 
  296000   0.10200349   -6122.7703    1011.5271    -5109.784   -3.4697285    123.29481    25.562821    23.991627 
  297000   0.10203183   -6122.5103    1011.4033   -5109.6474   -3.5867518    123.29521    25.554286    24.000453 
  298000   0.10072584   -6122.4131    1011.4727   -5109.4995   -3.6411914    123.29503    25.546786    24.007834 
  299000   0.10092422   -6122.2183    1011.5036   -5109.2711   -2.7514229    123.29508    25.545442    24.008243 
  300000  0.099381151   -6121.6106    1011.4139   -5108.7751    -1.400254    123.29538    25.538366    24.016691 
  301000  0.099840157   -6121.7248    1011.4634   -5108.8332    1.8633161     123.2949     25.53674    24.015377 
  302000   0.10118171   -6121.4098    1011.6122   -5108.3503     4.182621    123.29477    25.531967    24.020238 
  303000   0.10024711     -6121.32     1011.489    -5108.397    6.2060741    123.29497    25.525136    24.022603 
  304000   0.09896845   -6121.3331    1011.3908   -5108.5266    6.5382557    123.29525    25.518808    24.028464 
  305000   0.10039736   -6120.9987    1011.5631   -5107.9994    6.2991216    123.29473    25.514593    24.031305 
  306000   0.10063894   -6121.1086    1011.5498   -5108.1192      5.19513    123.29474    25.512742     24.03166 
  307000   0.10092788   -6121.2467    1011.3637   -5108.4392    3.9182186    123.29539    25.510981    24.034611 
  308000  0.097944964   -6121.0953    1011.4739   -5108.2203    3.6930066    123.29493    25.511009    24.033342 
  309000  0.099515359    -6120.982    1011.5996   -5107.9588    3.0447137    123.29483     25.51474    24.032432 
  310000   0.10061615   -6120.6077    1011.4155   -5107.7529    3.1557486    123.29532    25.522471    24.025554 
  311000  0.099459632    -6121.208    1011.4197   -5108.3655    2.5240993    123.29526    25.515801    24.030832 
  312000  0.098381553   -6120.9659    1011.5361   -5108.0224    1.3062309     123.2951    25.512151    24.035469 
  313000   0.10031447   -6121.3844    1011.4217   -5108.5277   0.86749687    123.29535    25.517131    24.030083 
  314000   0.10042827   -6120.3596    1011.3786   -5107.5444  -0.21362175    123.29548    25.514106    24.034674 
  315000   0.10173875   -6120.3303     1011.482    -5107.393  -0.60178086    123.29518    25.512468    24.035222 
  316000  0.098783555    -6121.316    1011.4207   -5108.4822  -0.58640437    123.29538    25.519258    24.029398 
  317000   0.10052064   -6121.6534    1011.3868   -5108.8287  -0.59603891    123.29533     25.52107    24.028882 
  318000   0.10309328   -6121.0514    1011.5299   -5108.0467  -0.32771849    123.29489    25.520979    24.028348 
  319000   0.10004375   -6121.3873    1011.4595   -5108.4967  -0.53628459    123.29531    25.523343    24.026212 
  320000   0.10083351   -6121.2767    1011.3481   -5108.4861  -0.04812374    123.29547    25.526599    24.022362 
  321000   0.10134877   -6121.1622    1011.4754    -5108.237  -0.04578133     123.2951    25.527657    24.021838 
  322000   0.10060419   -6121.5465    1011.4822   -5108.6251  -0.10120477    123.29511    25.527767    24.022041 
  323000  0.099548026   -6122.0404    1011.3662   -5109.2502   0.30535914     123.2953    25.532826    24.016815 
  324000   0.10199139   -6122.0632    1011.4415   -5109.1628   0.20884325    123.29512     25.53649    24.013928 
  325000  0.099551076   -6121.9511    1011.4714   -5109.0556   0.46110869      123.295    25.534962    24.013919 
  326000   0.10148876   -6122.1829    1011.3738   -5109.3573   0.44011203    123.29533    25.539083    24.011141 
  327000  0.095016095   -6122.7606    1011.4136   -5109.9878     1.065964      123.295    25.549451    24.000997 
  328000    0.0995133   -6122.7588    1011.5247   -5109.8106   0.86690616     123.2947     25.55145    24.000341 
  329000   0.10124996   -6122.5456     1011.453   -5109.6442    1.1139435    123.29489    25.552862    23.998091 
  330000  0.099809674   -6122.0527    1011.3821   -5109.2428    1.0228664    123.29509    25.553015    23.998859 
  331000  0.099840983   -6122.6724     1011.454   -5109.7902   0.77965727     123.2948    25.551983    23.998663 
  332000  0.099130956   -6123.0175    1011.4531   -5110.1463   0.64994865    123.29482    25.558566    23.992667 
  333000  0.099964923   -6122.9353    1011.3815   -5110.1239   0.83459629    123.29497    25.559957    23.992442 
  334000  0.099152494   -6122.6178    1011.4574   -5109.7421    1.1713872    123.29471    25.562471    23.990888 
  335000   0.10063678   -6122.3769    1011.5744   -5109.3629   0.99876081    123.29454    25.563491    23.990928 
  336000   0.10199729   -6123.0072    1011.4487   -5110.0995     1.317665    123.29479    25.554521    23.996826 
  337000   0.10032177     -6122.88    1011.3755   -5110.0694   0.82221315    123.29517    25.549456    24.001702 
  338000  0.099908086    -6122.402    1011.4602   -5109.5126   0.93889705    123.29482     25.54782    24.001811 
  339000   0.09761026   -6121.9389    1011.4437   -5109.0989   0.73025782    123.29489    25.541373    24.009871 
  340000  0.098585637   -6122.4183    1011.3782   -5109.6298    1.1677887    123.29496    25.545576    24.004665 
  341000   0.10111557   -6122.2426    1011.4955   -5109.3007   0.44245585    123.29475    25.540877    24.009999 
  342000   0.10157382   -6122.0478    1011.5032   -5109.0916    1.0107645    123.29462    25.531376    24.016885 
  343000   0.10231324   -6121.7445    1011.3721   -5108.9087    1.1669411    123.29517    25.529325    24.019197 
  344000   0.10186865   -6121.4966    1011.4233    -5108.616    1.3316027    123.29499     25.52288    24.024739 
  345000   0.09898319   -6121.1896     1011.488   -5108.2857    2.9453186    123.29472    25.518986    24.026238 
  346000   0.10005378   -6121.0556    1011.3826   -5108.2417    4.4122481    123.29538    25.516892    24.030612 
  347000  0.099573698    -6121.076    1011.4269   -5108.2247    8.1877521     123.2951    25.514759    24.029205 
  348000   0.10185369   -6120.8558     1011.564   -5107.8347    11.319787    123.29504    25.509024    24.035833 
  349000   0.10039667   -6120.8865    1011.4427   -5108.0077     14.19231    123.29541    25.511967    24.031124 
  350000   0.09782219    -6120.772    1011.3851   -5107.9875    14.411256    123.29513     25.51192    24.030816 
  351000  0.099664988   -6120.8357    1011.5705   -5107.8395    11.185204    123.29425      25.5109    24.035644 
  352000    0.1010946   -6120.8608    1011.5355   -5107.8792    9.6473319    123.29389    25.514879    24.030088 
  353000    0.1013516   -6120.5549    1011.4017   -5107.7033     7.342977    123.29457    25.512472    24.036858 
  354000  0.098714814   -6120.5081     1011.504   -5107.5921    7.9919934    123.29449    25.515529    24.033777 
  355000  0.099191735   -6120.5156    1011.5749   -5107.5217    9.5937931    123.29477    25.512676    24.036286 
  356000   0.10071721   -6120.7279    1011.4251    -5107.862    9.5548372    123.29552    25.511578    24.038481 
  357000  0.098977779   -6120.9275    1011.4199   -5108.0918    7.7947698    123.29516    25.517887    24.029972 
  358000  0.097455168   -6120.6345    1011.5374    -5107.703    4.5149059    123.29487     25.51669     24.03365 
  359000   0.10082083   -6120.9578    1011.4513   -5108.0643    2.9532545    123.29489    25.523957    24.026139 
  360000   0.10013597   -6121.3461     1011.411   -5108.5027    1.4738305    123.29497    25.530187    24.021328 
  361000   0.10116802   -6121.3654    1011.5639   -5108.3543   0.50204771    123.29461    25.528204    24.023418 
  362000  0.099819297   -6121.6581    1011.5134   -5108.7168   0.63388837    123.29477    25.533266    24.016621 
  363000   0.10056878   -6121.9662    1011.3729   -5109.1546  -0.25619154    123.29524    25.535785    24.015531 
  364000   0.10001314   -6122.1088    1011.4845   -5109.1937  -0.19191781    123.29476     25.53794    24.011731 
  365000   0.10010248   -6122.0194    1011.5483   -5109.0391  -0.62798302    123.29478    25.546513     24.00583 
  366000  0.099737222      -6122.8    1011.3894   -5109.9838  -0.29213209    123.29501    25.554088    23.997391 
  367000   0.10053059   -6123.3762    1011.4674   -5110.4707  -0.36098772    123.29492    25.559311    23.993084 
  368000  0.098560489   -6122.9859    1011.6396   -5109.9365   0.37098277    123.29449    25.568583    23.983912 
  369000   0.10221509   -6123.1992    1011.4546   -5110.2824 -0.016175033    123.29487     25.56438    23.987876 
  370000  0.098702187   -6123.4341    1011.3786   -5110.6436  -0.59961751    123.29505    25.565632    23.986002 
  371000  0.099742614   -6123.5859    1011.5309   -5110.6282    -0.733174    123.29468    25.569128     23.98237 
  372000  0.099544851   -6123.5912    1011.4749   -5110.6924  -0.37549516    123.29476    25.564181    23.987534 
  373000  0.099065606   -6123.0689    1011.3813   -5110.2705  -0.43062002    123.29512    25.565554    23.987254 
  374000   0.10015322   -6122.9508     1011.539   -5109.9791  -0.67875586    123.29481    25.565302    23.987427 
  375000   0.09978358   -6122.9239    1011.5185   -5109.9781   -0.8069147    123.29471    25.553643    23.996788 
  376000    0.1001347    -6122.877     1011.361   -5110.0836   -1.3452264    123.29531    25.550071    24.001145 
  377000  0.098635375   -6121.9164    1011.4603   -5109.0452   -1.3028843    123.29497     25.54375    24.007068 
  378000   0.10037865   -6122.1132    1011.5488   -5109.1285   -1.4425834    123.29477    25.533029    24.017657 
  379000   0.10057769   -6122.2408    1011.4008   -5109.4013    -1.196044    123.29523    25.535891    24.013441 
  380000  0.099219132   -6121.5314    1011.4135   -5108.6985   -1.5314409    123.29534    25.530309    24.019835 
  381000   0.10027119   -6121.0501    1011.5275   -5108.0882   -1.0838218    123.29491    25.525565    24.023425 
  382000   0.10086883   -6121.1484     1011.448   -5108.2574   -1.1927136    123.29528    25.526274    24.023517 
  383000  0.098105551   -6121.1021    1011.3679   -5108.3308   -1.2179942    123.29551    25.521298    24.028162 
  384000  0.099128352   -6120.7211    1011.4986   -5107.8045  -0.80064811    123.29511    25.517499    24.031517 
  385000   0.10133973   -6120.8674    1011.5301   -5107.8876   -1.0819689    123.29526    25.513921    24.035018 
  386000  0.099020978   -6120.1533    1011.3812   -5107.3556   -1.0128875    123.29568    25.511841    24.035475 
  387000   0.10034693   -6119.7031    1011.4309   -5106.8368    -1.738744     123.2956    25.511236    24.037396 
  388000   0.10012777   -6120.0038    1011.5326   -5107.0389   -2.1540207    123.29513    25.511791    24.036878 
  389000  0.099970472   -6120.7295    1011.4101   -5107.8893   -2.3199721    123.29539     25.51602    24.032401 
  390000  0.099701509   -6120.7798    1011.4084   -5107.9452   -2.4933291    123.29551    25.517955    24.032005 
  391000   0.10102094   -6120.8757    1011.5625   -5107.8681   -1.5637012    123.29493    25.515594    24.031372 
  392000   0.10035759   -6120.5675    1011.4395   -5107.6925   -1.5350907    123.29563    25.514378    24.033301 
  393000   0.09946964   -6119.9786      1011.38   -5107.1757   -1.2230386    123.29586    25.517053    24.031086 
  394000   0.10275506    -6120.888    1011.5603   -5107.8578   -1.1970176    123.29517    25.513117    24.032632 
  395000   0.10186075    -6121.467     1011.498   -5108.5119   -2.9898107    123.29546    25.509805    24.036571 
  396000   0.10216831   -6121.0642    1011.3448   -5108.2579   -4.1919981    123.29562    25.514973    24.029299 
  397000  0.099549394   -6121.0294    1011.4791   -5108.1263   -6.8208179    123.29533    25.511994    24.033866 
  398000   0.10117784   -6121.4243    1011.4961   -5108.4808   -8.2215005    123.29525    25.516924    24.027811 
  399000   0.10017767   -6121.6622    1011.3417   -5108.8874    -10.42039    123.29588    25.523284     24.02322 
  400000  0.098475208   -6121.7071    1011.4686   -5108.8298   -13.088115     123.2957    25.525289     24.02478 
  401000   0.10149027   -6121.9186    1011.6258    -5108.841   -14.191525    123.29515    25.534995    24.014112 
  402000   0.10384289    -6121.809    1011.4236   -5108.8999   -17.421054    123.29615    25.532911    24.020186 
  403000  0.099520053   -6122.1145    1011.3484   -5109.3425   -17.223338    123.29609    25.535697    24.014772 
  404000  0.097372233   -6122.2898     1011.509   -5109.3879   -17.858506    123.29589    25.540376    24.014241 
  405000   0.10173895   -6122.3476    1011.4656   -5109.4267   -16.028647    123.29572    25.540307     24.01307 
  406000  0.098324205   -6122.0203    1011.3773   -5109.2365   -13.837499    123.29577    25.543304     24.01134 
  407000  0.099738273   -6122.4963    1011.5509   -5109.5187   -11.830061    123.29518    25.553828    24.001272 
  408000   0.09940964   -6122.7201     1011.565    -5109.733   -9.5061319    123.29471    25.554453    23.998089 
  409000   0.10150025   -6122.6452     1011.409   -5109.7842   -7.8530779    123.29515    25.552333    24.001318 
  410000   0.10054652   -6122.9249    1011.4521   -5110.0345    -4.433175    123.29496    25.558406    23.992641 
  411000   0.10046701   -6122.6852     1011.548      -5109.7   -2.3466838    123.29482    25.550607    24.001455 
  412000  0.099932369   -6122.5477    1011.4728   -5109.6453  -0.13544044    123.29479    25.551839    23.997636 
  413000   0.10039407   -6122.5665     1011.428   -5109.7023   0.72347984    123.29524    25.557067    23.994723 
  414000    0.1012963   -6122.9226    1011.5478   -5109.9257    1.7027743    123.29456    25.555187    23.994106 
  415000  0.098933558   -6122.9915    1011.5378   -5110.0385   0.77225995    123.29459    25.555967    23.995569 
  416000   0.10222371   -6123.0568    1011.3957   -5110.1988   0.66182953      123.295    25.557462    23.993232 
  417000  0.099475717    -6122.832    1011.4924   -5109.9166    0.4032272    123.29472    25.547422    24.003238 
  418000  0.099779306   -6122.4817    1011.5782   -5109.4762   0.36968633    123.29442    25.547579    24.002698 
  419000   0.10038147   -6122.6682      1011.42   -5109.8123   0.28315041    123.29503    25.545592    24.004569 
  420000   0.09972491    -6122.445    1011.4396   -5109.5788   0.35444741      123.295    25.541564    24.008772 
  421000  0.099828491   -6122.4223    1011.5777   -5109.4165   0.38996629     123.2945    25.544003    24.005839 
  422000   0.10109994   -6122.4146     1011.458   -5109.5104 -0.011427281    123.29501    25.540959    24.010243 
  423000  0.099292083   -6122.6594     1011.421    -5109.818    0.3940922    123.29506    25.536282    24.013255 
  424000   0.10012375   -6122.1153    1011.5933   -5109.0898 -0.0043881934    123.29461    25.534062    24.016495 
  425000      0.10258   -6122.1348    1011.5285   -5109.1389   0.11663195    123.29477    25.528076    24.020421 
  426000  0.099160085   -6122.1054    1011.3722   -5109.3147 -0.016045376    123.29543    25.524739    24.023886 
  427000  0.098244315    -6121.771    1011.4909   -5108.8747  0.096059481    123.29496    25.523073    24.025705 
  428000  0.098726218   -6121.7554    1011.5643   -5108.7788    0.1639015    123.29463     25.52143    24.026989 
  429000   0.10129314   -6121.3386    1011.4302   -5108.4595   0.28850377    123.29526    25.523647    24.025827 
  430000  0.099469381   -6121.2165    1011.4663   -5108.3273   0.85176103      123.295    25.523605    24.024551 
  431000  0.098620254   -6121.4108    1011.5592   -5108.4409   0.80983557     123.2948    25.521307    24.027341 
  432000  0.098571135   -6121.4275    1011.4537   -5108.5637    1.3577354    123.29522    25.524128    24.024483 
  433000   0.10116252    -6121.834    1011.4346   -5108.9523    1.8784608    123.29519    25.517062    24.030392 
  434000   0.10246819    -6120.924    1011.5181   -5107.9401     1.881802    123.29502    25.513965     24.03414 
  435000    0.1027411   -6120.6101    1011.5137   -5107.6266    2.1443915    123.29506    25.513993    24.032673 
  436000   0.10006878   -6120.9832    1011.4292   -5108.1225    1.6304668    123.29533    25.509168    24.037649 
  437000  0.097385966   -6120.7702    1011.4373   -5107.9398    1.5953901    123.29514    25.513812    24.033143 
  438000  0.099992616   -6121.4423    1011.5445   -5108.4674    1.0963676    123.29484    25.519744    24.028886 
  439000   0.10051242   -6121.1358    1011.5227   -5108.1752   0.81327093    123.29486    25.518806    24.031016 
  440000   0.10138873   -6120.6599     1011.468   -5107.7416   0.97295441      123.295     25.52259     24.02662 
  441000  0.099310678   -6120.9353    1011.5103   -5108.0044   0.20941313    123.29512     25.52525    24.026045 
  442000  0.099449204   -6121.4354    1011.4975   -5108.5153   0.63083713    123.29498    25.524717    24.024938 
  443000  0.099081036   -6121.5737    1011.4244   -5108.7319   0.21404322    123.29541    25.526436    24.025794 
  444000  0.097821559    -6121.203    1011.4766   -5108.3271   0.13781181    123.29525    25.529979    24.023324 
  445000   0.10089436   -6121.4564    1011.5413   -5108.4718    0.2346084    123.29481    25.529324     24.02309 
  446000  0.098303385   -6121.5393    1011.4801    -5108.653 -0.058425579    123.29515    25.536184     24.01892 
  447000  0.099903874   -6121.7968    1011.4642   -5108.9035     1.498955    123.29499    25.543554    24.010229 
  448000   0.10086884   -6122.2969     1011.549   -5109.3051    2.7606945    123.29478    25.544275    24.011163 
  449000   0.09987436   -6122.3368    1011.4901    -5109.418    6.5245764    123.29475    25.553728    23.998655 
  450000   0.10058538   -6122.7345    1011.4575   -5109.8381    8.4814402    123.29497    25.551231     24.00076 
  451000  0.098113481   -6122.7081    1011.5745     -5109.73    10.561149    123.29409    25.552707    23.995426 
  452000   0.10075879   -6123.0209    1011.5692   -5110.0104    9.9056584    123.29406    25.554874    23.993191 
  453000  0.099685088   -6123.4628    1011.4355   -5110.6013    8.4877335    123.29442    25.557068    23.989366 
  454000  0.098777314   -6123.4338     1011.469   -5110.5518    6.4278042    123.29446     25.56154    23.987177 
  455000  0.097784095   -6122.8589    1011.5656   -5109.8945    5.3637557    123.29436    25.566681    23.984527 
  456000  0.099882465   -6122.2756    1011.5232   -5109.3235    3.3240546    123.29467    25.565941    23.987444 
  457000   0.10001223   -6122.5225    1011.5284   -5109.5634   0.25906634    123.29465    25.563591    23.990238 
  458000   0.10056536   -6123.0884    1011.5404   -5110.1094   -1.4779757    123.29449    25.559081    23.992752 
  459000  0.099644378   -6122.9106    1011.4701   -5110.0151   -2.4222796    123.29493    25.554243    23.998732 
  460000   0.10206078   -6122.7473    1011.4327   -5109.8547   -2.1170116    123.29496    25.553506    23.998194 
  461000  0.099747019   -6122.2985    1011.5147   -5109.3569   -2.0302845    123.29482     25.54764     24.00506 
  462000  0.099819252   -6122.2666    1011.5637    -5109.275  -0.76107469     123.2946    25.542881    24.007303 
  463000    0.1003929   -6121.9032    1011.5248   -5108.9423  -0.91369473    123.29496    25.537528    24.013727 
  464000   0.10116922   -6121.4817     1011.495   -5108.5395  -0.31653284    123.29489    25.531593    24.017658 
  465000   0.10032605    -6121.423    1011.4912   -5108.4966  -0.18430826    123.29511    25.523957    24.024642 
  466000  0.099457292   -6121.2246    1011.4241   -5108.3778  -0.18091179    123.29537    25.524032    24.024405 
  467000  0.098995721   -6120.9451    1011.4779   -5108.0511  -0.10016011    123.29498    25.522138    24.026296 
  468000   0.09960064   -6120.7272    1011.6285   -5107.6739  -0.21314259    123.29461    25.519679    24.029958 
  469000   0.09968251   -6121.1954    1011.5726   -5108.1969   0.18346043    123.29486    25.520851    24.026665 
  470000   0.10029664    -6121.134    1011.4428   -5108.2565 -0.026976355     123.2953    25.516278    24.031668 
  471000  0.099721665    -6120.749    1011.5114   -5107.8111   0.58768055    123.29512    25.514729    24.033192 
  472000   0.10198644   -6120.5291    1011.5545   -5107.5157   0.90450955    123.29512    25.513505    24.033849 
  473000  0.099137593   -6120.2252    1011.4646   -5107.3425   0.52835653    123.29537    25.510791    24.037011 
  474000  0.098641395   -6120.3392    1011.5197   -5107.4084    0.8023421    123.29501    25.511627    24.034863 
  475000  0.099364462   -6120.3789    1011.6121   -5107.3455   0.43075395    123.29489    25.512234    24.036123 
  476000   0.10084725    -6120.433    1011.4816   -5107.5088   0.32878262     123.2952     25.51308    24.035124 
  477000  0.099020247   -6120.6177    1011.4281   -5107.7732   0.48342019    123.29537    25.514005    24.033685 
  478000  0.098800925   -6120.6734    1011.5584   -5107.7016   0.58028369    123.29504    25.513602    24.034583 
  479000  0.097009075   -6120.2417    1011.5354   -5107.3186   0.91052595    123.29502    25.516504    24.031014 
  480000  0.099795677   -6120.8108    1011.4523   -5107.9309    0.3259122    123.29538    25.516247    24.032588 
  481000  0.098112166   -6120.9965    1011.5112   -5108.0818    0.4553861    123.29509    25.517547    24.030787 
  482000  0.099454658   -6120.6167    1011.5193   -5107.6747 -0.095647916    123.29509    25.521533    24.028273 
  483000   0.10217834   -6120.8866    1011.4522   -5107.9727    -1.008176    123.29533    25.521338    24.029144 
  484000  0.099418284   -6121.2237    1011.5037   -5108.2978   -0.8985884    123.29492    25.521531    24.026771 
  485000   0.10129268   -6121.2714    1011.5401   -5108.2823   -2.0260601    123.29494    25.526173    24.024785 
  486000   0.10105929   -6121.4882    1011.4484   -5108.5942   -2.4774653    123.29505    25.529914    24.020715 
  487000   0.10090785   -6121.3669    1011.4389   -5108.4845   -3.3340655    123.29516    25.535382    24.017964 
  488000   0.10088094   -6121.4925    1011.5298   -5108.5196   -4.1568645    123.29482    25.542729    24.011505 
  489000  0.098935691   -6121.9091    1011.5375   -5108.9564   -5.1465059    123.29471    25.543321    24.009806 
  490000  0.099324012   -6122.2893    1011.4798   -5109.3886   -6.1909661    123.29498    25.546709    24.008298 
  491000  0.099453848   -6122.3467    1011.5262   -5109.3978   -5.6671306    123.29465    25.552529    24.001066 
  492000   0.10106474   -6122.2303    1011.5133   -5109.2713     -5.31589    123.29493    25.549159    24.005214 
  493000  0.099561252   -6122.5458    1011.4043   -5109.7173   -2.6194604    123.29524     25.55538    23.995173 
  494000  0.099427192   -6122.8136     1011.477   -5109.9143   -1.0286692    123.29519    25.556506    23.994445 
  495000  0.098395018   -6123.1912    1011.6019   -5110.1818    1.2611729    123.29452    25.552876    23.993387 
  496000   0.10100371   -6122.9861    1011.5252   -5110.0161   0.86092614    123.29501    25.554186    23.993548 
  497000   0.10080482   -6123.1565    1011.4382   -5110.2763   0.22823715     123.2949    25.553452      23.9923 
  498000  0.097901368   -6122.9778    1011.4804   -5110.0969    -2.166785    123.29485    25.547875    24.000577 
  499000  0.097211064   -6122.2781    1011.4997   -5109.3878   -3.8476451      123.295    25.553779    23.996818 
  500000   0.10011621   -6122.5437    1011.4679   -5109.6436   -4.5364479    123.29508    25.549931    24.002007 
  501000  0.099793939   -6122.4833    1011.5382   -5109.5176   -4.4900696    123.29482    25.544857    24.006912 
  502000   0.10082297   -6122.2521    1011.5751   -5109.2347    -4.333609    123.29498    25.547125    24.005362 
  503000   0.10145185   -6122.3029    1011.4581   -5109.3935   -3.9933833    123.29534    25.539705    24.013132 
  504000   0.10002206   -6122.2577    1011.4358   -5109.3911   -3.0415205     123.2952    25.535419    24.015522 
  505000   0.10034887   -6121.4677    1011.5492    -5108.483   -3.1877641    123.29521    25.533304    24.018904 
  506000   0.10009915   -6121.2386    1011.5189   -5108.2877   -2.4290567    123.29509    25.528356    24.021472 
  507000   0.10088114   -6120.8493    1011.4807   -5107.9255   -2.4956921    123.29515    25.524659    24.026318 
  508000  0.096704816    -6121.276    1011.5452   -5108.3475   -2.1428298    123.29506    25.524958    24.024875 
  509000   0.10021873   -6121.3492    1011.4963   -5108.4193   -1.9304486    123.29524    25.522473    24.027095 
  510000   0.10003682   -6121.1925    1011.4237   -5108.3377   -1.4463471    123.29536    25.521766     24.02779 
  511000  0.096641976   -6121.4016    1011.5208   -5108.4983  -0.80453413    123.29501     25.52114     24.02684 
  512000  0.099870882   -6120.5344    1011.6065   -5107.4992  -0.93836769    123.29495     25.51682    24.032929 
  513000   0.10210653   -6121.2217    1011.5017   -5108.2594 -0.044459591    123.29512    25.517224    24.030226 
  514000   0.10236105    -6121.044     1011.455   -5108.1247   0.19372618    123.29541    25.513597    24.033877 
  515000  0.097981791   -6120.7992    1011.4852   -5107.9124   0.21711183    123.29544    25.511288    24.035964 
  516000  0.097639956   -6120.6787     1011.472   -5107.8099   0.46983623    123.29534    25.514008    24.032737 
  517000   0.10245133   -6120.7748    1011.4793   -5107.8299  0.097873467    123.29526     25.51111    24.036642 
  518000   0.10075983   -6121.0849    1011.5757   -5108.0679   0.16520192    123.29493      25.5152    24.031522 
  519000    0.0991643   -6121.2612    1011.5237    -5108.319 -0.032164022    123.29512    25.516012    24.031877 
  520000   0.10136353   -6121.0249    1011.4386   -5108.1363   0.29310548    123.29534    25.516367    24.032096 
  521000   0.10191658   -6120.8089    1011.5287   -5107.8223   0.38234255    123.29515    25.516568    24.031006 
  522000  0.099343093   -6120.7364    1011.5394   -5107.7758 -0.031245469    123.29526    25.513606    24.034333 
  523000  0.099289291   -6120.7691    1011.4587   -5107.8901   0.25907472    123.29531      25.5157    24.030757 
  524000   0.09922957   -6120.8931    1011.5179   -5107.9557   -0.6259321    123.29526    25.514082    24.034319 
  525000  0.099449684   -6121.4542    1011.5247   -5108.5069   -1.0143831    123.29514    25.514479    24.033655 
  526000   0.10056035   -6121.3405    1011.4364   -5108.4657   -1.5909664    123.29537    25.519978    24.028756 
  527000   0.10031473   -6121.0106    1011.4957   -5108.0799   -2.7308911    123.29528    25.522097    24.028296 
  528000  0.099921456   -6120.9601    1011.5655   -5107.9653   -3.0204384    123.29485    25.524386    24.024565 
  529000  0.098877247   -6120.9701    1011.4942   -5108.0615    -4.528342    123.29527    25.527153    24.025262 
  530000  0.099787921   -6121.2252     1011.447   -5108.3507   -4.8609284    123.29525    25.531179    24.020301 
  531000  0.098355318   -6121.0428    1011.4986   -5108.1373   -6.2532462    123.29523    25.533096    24.020545 
  532000  0.099322834   -6121.3457    1011.4694   -5108.4555   -6.9466841    123.29529    25.538946     24.01537 
  533000   0.10121907   -6121.6276    1011.4613   -5108.7184   -7.2841256    123.29514    25.541198    24.012689 
  534000   0.09935206   -6121.9381    1011.5517   -5108.9651   -8.2013013    123.29498    25.544413    24.011293 
  535000   0.10007105   -6122.1861    1011.5291   -5109.2255    -6.866242    123.29486    25.552965    24.000503 
  536000   0.10062759   -6122.4711    1011.4272   -5109.6044   -5.3992506    123.29524    25.549499    24.004719 
  537000  0.098285092   -6122.6591    1011.4611    -5109.792   -1.8530149    123.29485    25.556428    23.993669 
  538000   0.10029254   -6122.7337    1011.5416   -5109.7574   0.97181152    123.29486    25.554227    23.996373 
  539000   0.09895385   -6122.8601    1011.5112   -5109.9333    4.8169089    123.29464    25.552064    23.993718 
  540000  0.099764899   -6122.8546     1011.483   -5109.9445     4.854489    123.29498    25.555408    23.993119 
  541000   0.10033325   -6122.9479     1011.533   -5109.9796    4.3381063    123.29461    25.558617    23.989207 
  542000  0.099806946    -6122.812    1011.5206   -5109.8637    2.0709769    123.29476    25.553361    23.997422 
  543000   0.10199923   -6122.5661    1011.4419   -5109.6651   0.74364913     123.2949    25.555563    23.995653 
  544000   0.09919343   -6122.5895    1011.5205     -5109.65  -0.64917125    123.29469    25.551349    24.000564 
  545000   0.10115284   -6122.4088    1011.6056   -5109.3563   -1.1148946    123.29461    25.546554    24.005703 
  546000  0.099435921    -6122.053     1011.468   -5109.1626  -0.93911213    123.29504    25.544113    24.007561 
  547000   0.09923983   -6121.8837    1011.4382   -5109.0259   -1.5683729    123.29524    25.537643    24.015025 
  548000   0.10174436   -6122.0881    1011.5526   -5109.0801   -1.0370768    123.29483    25.535412    24.014905 
  549000   0.10018449   -6121.5999    1011.5089   -5108.6579   -1.4312152    123.29516     25.53128    24.020834 
  550000  0.099426795   -6121.1527    1011.4775   -5108.2529  -0.96358553      123.295    25.527492    24.022487 
  551000  0.098530659   -6120.9223    1011.5915   -5107.9213   -1.4067445    123.29492    25.522317    24.028732 
  552000   0.09940414   -6120.7331     1011.545   -5107.7661   -0.9487664    123.29511    25.520615    24.029485 
  553000  0.099411872   -6120.7552    1011.4202    -5107.913  -0.89741719    123.29543     25.51753    24.031679 
  554000   0.10066131   -6120.3812    1011.4909   -5107.4504   -1.0839595    123.29537    25.514298    24.035742 
  555000    0.1004765   -6120.3364     1011.579   -5107.3201  -0.12593693    123.29507    25.515379     24.03296 
  556000    0.1006854   -6120.2082    1011.4878   -5107.2801  -0.49953435    123.29536    25.512711    24.037146 
  557000   0.10007183   -6120.3996    1011.4996   -5107.4685   -0.5024866     123.2953    25.512568     24.03626 
  558000   0.10057114   -6120.2695    1011.5625   -5107.2683   -0.5303132     123.2952    25.512642    24.036216 
  559000   0.10106932   -6120.1562     1011.474   -5107.2364  -0.86626632    123.29546    25.511182    24.038612 
  560000  0.097981824   -6120.1401     1011.465   -5107.2735  -0.27532362    123.29532    25.512154    24.035374 
  561000  0.099691968    -6120.093    1011.5754   -5107.0915  -0.26035759     123.2952    25.509709     24.03893 
  562000   0.10068383   -6120.5811    1011.5097   -5107.6311   0.38030205    123.29524    25.511166    24.036747 
  563000   0.10064927    -6120.691    1011.4574   -5107.7939   0.29902943     123.2954    25.512606    24.035566 
  564000   0.09894319   -6120.9837    1011.5254   -5108.0429  -0.27262219    123.29539    25.511174    24.037493 
  565000  0.099823431   -6120.5066    1011.5076    -5107.571   0.10778635    123.29522    25.512578    24.034122 
  566000   0.10127672   -6120.6298    1011.4666   -5107.7144  -0.51996763    123.29537    25.513725    24.034878 
  567000   0.10012155   -6120.8305    1011.5444   -5107.8539   0.11982088    123.29507    25.516411    24.031515 
  568000   0.10094402   -6120.9594     1011.563   -5107.9525   0.72363411    123.29499    25.520186     24.02813 
  569000   0.10034733   -6121.2037    1011.4376   -5108.3307    1.0243159    123.29537    25.522074    24.026772 
  570000   0.10002773   -6121.3241    1011.4513   -5108.4419    2.0503067    123.29528    25.524091    24.022195 
  571000   0.10016239   -6121.7257    1011.5436   -5108.7493    2.1276017    123.29516    25.524936    24.022797 
  572000   0.09972796   -6121.9405    1011.4951   -5109.0188     3.298997    123.29501    25.530019    24.015715 
  573000   0.09967833   -6121.9655    1011.4443   -5109.0953    3.1086316    123.29526    25.534373    24.013398 
  574000   0.10163398   -6122.7408    1011.5261   -5109.7608    3.6352968    123.29493    25.539697    24.007138 
  575000  0.099210115   -6122.9197    1011.4775   -5110.0231    3.3105382    123.29498    25.544832    24.003039 
  576000    0.1000578   -6122.7602    1011.4411   -5109.8878    1.7300612    123.29511    25.548857    24.001029 
  577000   0.10212141   -6123.0937    1011.5427   -5110.0902   0.21686225    123.29463    25.553037    23.997097 
  578000   0.10110353   -6122.7958    1011.5464   -5109.8031   -2.1973969    123.29465    25.557117    23.997027 
  579000    0.1023131    -6122.804    1011.4489   -5109.8915   -3.1435291    123.29481    25.561882    23.992411 
  580000  0.099809117   -6122.7217     1011.476    -5109.818   -3.7728032    123.29509    25.563548    23.994559 
  581000   0.10155369   -6122.9554    1011.5355   -5109.9672   -1.6586082    123.29472    25.567197    23.988319 
  582000   0.09892566   -6122.9891    1011.5087   -5110.0653   -1.3141191    123.29504     25.56394    23.993176 
  583000   0.10163589   -6122.8713    1011.4857   -5109.9317   0.35337157    123.29473    25.559444    23.993254 
  584000    0.0977937   -6122.6309    1011.5448   -5109.6872    1.0289593    123.29465     25.55143    24.001565 
  585000  0.099461323   -6122.6747       1011.5   -5109.7519    2.7079538    123.29461    25.550558    23.998862 
  586000   0.10067427   -6122.5003     1011.426   -5109.6342    2.6654773    123.29505    25.545943    24.004197 
  587000   0.10150579   -6122.2974    1011.4963   -5109.3491    3.7017172    123.29473     25.54203    24.005783 
  588000   0.10088579   -6122.0746    1011.5371   -5109.0943    3.8600468    123.29472    25.538181    24.009825 
  589000  0.098826719   -6121.8458    1011.4663   -5108.9657    3.4522059    123.29497    25.534235    24.013874 
  590000   0.10007889   -6122.0669    1011.4777   -5109.1576    3.3716213     123.2949     25.53085     24.01632 
  591000  0.098668637   -6121.9782    1011.5076   -5109.0591    2.6142097    123.29504    25.526763    24.021531 
  592000  0.099951499   -6121.5463    1011.4585    -5108.658    2.3205532    123.29505    25.524923    24.022014 
  593000   0.09959269   -6121.1344    1011.4579   -5108.2518    1.4137116    123.29518    25.521107    24.027446 
  594000  0.098152914    -6121.582    1011.5405   -5108.6375    1.5810154    123.29492    25.523266     24.02381 
  595000  0.099054213   -6121.5151    1011.5184   -5108.5798   0.90845849    123.29506    25.520803    24.027171 
  596000   0.10120691   -6121.1487    1011.4331   -5108.2679   0.57879208    123.29536    25.519465    24.029511 
  597000   0.10000242   -6121.1118    1011.4943    -5108.187   0.88442483    123.29522    25.519971    24.028359 
  598000  0.099211462   -6121.0361    1011.5271   -5108.0898   0.26984749     123.2953    25.516724    24.032803 
  599000   0.10024163   -6120.9654    1011.4548   -5108.0767   0.43961918    123.29532    25.516622    24.031187 
  600000  0.099436005   -6120.7938    1011.5088   -5107.8626  -0.10449087    123.29531    25.516714    24.033164 
  601000   0.10172527   -6121.0406    1011.5601   -5108.0254   -0.4727713     123.2951    25.513905    24.035292 
  602000   0.10012314   -6121.3114    1011.4525   -5108.4267   -0.8729434    123.29533    25.515632     24.03278 
  603000  0.099893479   -6121.0383    1011.4392   -5108.1702    -1.138214    123.29544     25.51753    24.032405 
  604000   0.10084217   -6120.9093    1011.5564   -5107.9103  -0.48452455    123.29499    25.517814    24.030733 
  605000  0.099821941   -6121.1626    1011.5411   -5108.1936  -0.70491605    123.29517    25.517845    24.032596 
  606000   0.10029079   -6121.2938    1011.4798   -5108.3794   0.18627333    123.29522    25.519212    24.030581 
  607000   0.10201503   -6120.9163    1011.5402   -5107.9168   0.82144096    123.29517    25.517062    24.032218 
  608000   0.10321558   -6120.9637    1011.5084   -5107.9789   0.79761336    123.29542    25.514539    24.034273 
  609000   0.10005247   -6120.7775    1011.4254   -5107.9208     1.296298    123.29538    25.514482    24.032591 
  610000  0.096616626   -6120.6613    1011.5144   -5107.7648   0.93476926    123.29523    25.515042    24.033983 
  611000   0.10079208   -6121.0141    1011.5888   -5107.9835    1.6087614    123.29484    25.517034    24.030663 
  612000   0.10050721   -6121.6693    1011.4715     -5108.76    2.0660831    123.29504    25.519951     24.02774 
  613000  0.099483806    -6121.152    1011.4599    -5108.269    2.8821003    123.29518    25.521285    24.026888 
  614000  0.099328963    -6121.425    1011.5438   -5108.4603    4.0796034    123.29488    25.521866    24.023849 
  615000  0.099866439   -6121.2996    1011.4696   -5108.4014    4.5978945    123.29521    25.523689    24.024091 
  616000  0.098435678    -6121.527    1011.4537   -5108.6652    6.4588224    123.29499     25.52785    24.017519 
  617000   0.10041836   -6121.6573    1011.5516   -5108.6693    7.0140011     123.2949    25.528044     24.01856 
  618000  0.099804401   -6122.0973    1011.4972   -5109.1724    7.7471882    123.29491    25.533265     24.01246 
  619000  0.099021949   -6122.1116    1011.4449   -5109.2502    7.9844439    123.29495    25.537685    24.008673 
  620000     0.101534   -6122.5657    1011.5161   -5109.5971    6.8981994    123.29477     25.54235    24.004697 
  621000  0.097930538   -6122.6928    1011.5017   -5109.7902    5.0344706    123.29458    25.550756    23.997237 
  622000  0.096792894   -6122.8795    1011.4751   -5110.0198     1.646078    123.29463    25.555905    23.996053 
  623000   0.10040799    -6122.914    1011.5207    -5109.957  -0.40380203    123.29459    25.563405    23.989542 
  624000   0.10057486   -6123.2359    1011.5395   -5110.2577   -2.3399861    123.29497    25.565536    23.990783 
  625000   0.10078748   -6123.4815    1011.4642   -5110.5755   -2.0938972    123.29502    25.569392     23.98518 
  626000  0.098497022   -6123.6519    1011.4618   -5110.7811   -2.9642884    123.29519    25.567271     23.98861 
  627000  0.099169328   -6123.4237    1011.5113   -5110.4938   -2.6722453    123.29464    25.567651    23.985254 
  628000   0.10005479   -6122.9775    1011.5207   -5110.0255   -2.6781915     123.2947    25.564222    23.990107 
  629000     0.101407   -6122.6427    1011.4716   -5109.7205  0.042577603    123.29486    25.562323    23.988601 
  630000  0.098990817    -6122.863    1011.4893   -5109.9576    1.0384215    123.29513    25.552406    23.998048 
  631000    0.1006683   -6122.8359    1011.4865   -5109.9093    2.2718006    123.29503    25.546835    24.000217 
  632000  0.099668824   -6122.3191    1011.4375   -5109.4559    1.9747118    123.29535    25.541278    24.006955 
  633000  0.097312982   -6122.2803    1011.4593    -5109.429    1.9656205    123.29519    25.537501    24.010301 
  634000   0.10070386   -6122.4175    1011.5211   -5109.4559    1.3776829      123.295    25.533975    24.014382 
  635000   0.10177222    -6121.849    1011.4944   -5108.8987   0.90390048    123.29525    25.530834    24.018371 
  636000  0.099316688   -6121.5055    1011.4425   -5108.6423    1.1892989    123.29537    25.527017    24.020442 
  637000  0.099747532   -6121.1176    1011.4959   -5108.1947   0.33622018     123.2954    25.522869    24.025985 
  638000  0.099552015   -6120.6112    1011.4795   -5107.7076   0.38180697    123.29528    25.518253     24.02912 
  639000   0.10023707   -6120.9337    1011.4383   -5108.0615  -0.45037407     123.2955    25.515406    24.033268 
  640000  0.099679178   -6120.6378    1011.4855   -5107.7264  -0.79671732    123.29529    25.512953    24.034961 
  641000   0.10064562   -6120.2102    1011.4813   -5107.2891   -1.0468115    123.29534    25.511267    24.036345 
  642000  0.099264345    -6120.159     1011.449     -5107.29   -1.0939361    123.29556    25.512099     24.03693 
  643000  0.099615462   -6120.3557     1011.501   -5107.4297  -0.42718662    123.29525    25.513235    24.034453 
  644000   0.10053195   -6120.5714    1011.5252   -5107.6082  -0.97786191    123.29541    25.512592    24.036934 
  645000  0.098885459   -6120.9274    1011.4527   -5108.0602  -0.89875921    123.29549    25.515805    24.032804 
  646000  0.099398232   -6120.3334    1011.4717   -5107.4398    -1.529332    123.29535    25.515044    24.034233 
  647000   0.10036872   -6119.7017    1011.5022   -5106.7638   -2.5859389    123.29548     25.51466    24.036156 
  648000  0.098779298    -6120.383    1011.4835   -5107.4865   -2.4441585    123.29537    25.514804    24.033728 
  649000   0.10119684   -6120.5299    1011.4843    -5107.598   -2.8639759    123.29538    25.512408    24.037936 
  650000   0.10095649   -6120.8635    1011.5044   -5107.9149   -2.5001882    123.29537    25.514576    24.034881 
  651000   0.09857583   -6120.9066     1011.488   -5108.0085   -2.1399083    123.29548    25.516311    24.033529 
  652000   0.10186119   -6120.9444    1011.4588   -5108.0285   -2.3641169    123.29548    25.517668    24.033069 
  653000   0.10127142   -6121.0034     1011.474   -5108.0807   -2.1920369    123.29541    25.527303    24.022548 
  654000  0.098492984   -6121.5509    1011.4925   -5108.6495   -2.8668445    123.29545    25.524771     24.02652 
  655000  0.098022539   -6121.9299    1011.5019   -5109.0257   -1.8632845    123.29506    25.530071    24.019624 
  656000   0.10168576   -6121.7719    1011.5261   -5108.7912   -1.8578083     123.2952    25.533597    24.017646 
  657000   0.10018137   -6121.4339    1011.4818   -5108.5191   -1.2537964    123.29526    25.532391    24.017638 
  658000  0.099360307   -6122.1584     1011.456   -5109.2811  0.028131281    123.29508     25.53502    24.012442 
  659000   0.10163056   -6122.7521     1011.465   -5109.8333   0.53191333    123.29526     25.53868    24.009522 
  660000  0.098509387   -6122.9954    1011.4819   -5110.1043    2.0922696    123.29505    25.541316    24.004068 
  661000   0.10010503   -6122.6997    1011.5078   -5109.7599    2.5937589    123.29512     25.54838     24.00064 
  662000   0.10126456   -6122.6779     1011.519   -5109.7103    3.9968544    123.29492    25.554379    23.992091 
  663000   0.10156746   -6122.9362     1011.484   -5109.9993    1.5289203    123.29534    25.548821    24.000157 
  664000  0.099133131   -6123.3294    1011.4629   -5110.4484 -0.088687692    123.29501    25.554894    23.992831 
  665000   0.10030918   -6123.0165    1011.4661   -5110.1156   -3.3588627    123.29512    25.553087    23.998986 
  666000  0.098453885   -6122.5134    1011.4711    -5109.634   -5.2803815    123.29496    25.554387    23.998056 
[...]
 7842000    298.24147   -4342.4458    6930.6517    6854.5226   -337.19148    112.02954    31.722074    26.970948 
 7843000    293.11821   -4354.7595    7016.4615    6854.7308   -324.61119    112.02954    31.722074    26.970948 
 7844000    300.25134   -4355.4346    6915.0148    6854.6477   -327.80675    112.02954    31.722074    26.970948 
 7845000    300.36531    -4348.569    6906.2205    6854.3496    312.86084    112.02954    31.722074    26.970948 
 7846000    291.32964   -4359.1463    7046.4013    6854.6985    834.25636    112.02954    31.722074    26.970948 
 7847000    295.62425   -4365.3619    6991.6087    6855.1243   -96.495381    112.02954    31.722074    26.970948 
 7848000    301.25195   -4363.2758     6908.742    6854.8475   -699.09411    112.02954    31.722074    26.970948 
 7849000    303.58169   -4367.6454    6880.2092    6855.2718     -1348.41    112.02954    31.722074    26.970948 
 7850000    296.43751   -4355.8116    6970.2151    6854.9147   -60.982215    112.02954    31.722074    26.970948 
 7851000    295.12417   -4378.9244    7012.0931    6854.8926   -86.602239    112.02954    31.722074    26.970948 
 7852000    296.29532   -4345.7342     6961.999     6854.742   -610.88453    112.02954    31.722074    26.970948 
 7853000    298.04529   -4369.7373    6961.0887    6854.8617    8.2870139    112.02954    31.722074    26.970948 
 7854000    299.86193   -4341.0404     6906.283    6854.7398   -544.73634    112.02954    31.722074    26.970948 
 7855000    299.68165   -4379.8136    6947.7317    6854.8363   -408.39868    112.02954    31.722074    26.970948 
 7856000     298.4717   -4369.7534     6954.978    6854.8346    -218.0973    112.02954    31.722074    26.970948 
 7857000     296.6374   -4354.0694     6965.693    6854.9942   -855.38375    112.02954    31.722074    26.970948 
 7858000    297.69681   -4375.5184    6972.1478    6855.1547   -1062.6519    112.02954    31.722074    26.970948 
 7859000    297.06459   -4366.4504    6971.8422    6854.8732   -539.75042    112.02954    31.722074    26.970948 
 7860000    298.80147   -4357.8851    6938.3882    6854.8304   -50.974178    112.02954    31.722074    26.970948 
 7861000    299.19645   -4362.3053    6937.3386    6855.0108   -1078.3317    112.02954    31.722074    26.970948 
 7862000    300.04424   -4357.5563    6920.4177    6854.9664   -422.02284    112.02954    31.722074    26.970948 
 7863000    295.80147   -4363.9993    6987.7886    6855.2019   -16.434628    112.02954    31.722074    26.970948 
 7864000    301.29507   -4348.4566    6893.4258    6854.9672    197.32474    112.02954    31.722074    26.970948 
 7865000    296.51323   -4367.1075    6980.6275    6855.1142    9.5071843    112.02954    31.722074    26.970948 
 7866000    295.38809    -4365.892    6995.2191    6854.8264   -981.30405    112.02954    31.722074    26.970948 
 7867000    297.78872   -4355.8276    6950.7404    6854.7529   -630.99168    112.02954    31.722074    26.970948 
 7868000    294.88602   -4365.1888    7001.7449    6854.8733      249.444    112.02954    31.722074    26.970948 
 7869000    294.63356   -4381.2937    7021.5936    6855.0056   -645.23734    112.02954    31.722074    26.970948 
 7870000    297.91091   -4383.0363    6976.0793     6854.631   -723.18445    112.02954    31.722074    26.970948 
 7871000    301.21402   -4384.5022     6930.438    6854.7745    -204.0663    112.02954    31.722074    26.970948 
 7872000    299.22656   -4343.3976    6917.8559    6854.8665   -609.48862    112.02954    31.722074    26.970948 
 7873000    297.81682     -4365.79    6960.4755    6854.9276   -2118.8384    112.02954    31.722074    26.970948 
 7874000    303.45207   -4377.1299    6891.1977    6854.9216   -910.84619    112.02954    31.722074    26.970948 
 7875000    295.02483   -4367.6467    7002.4226    6855.0786    332.59759    112.02954    31.722074    26.970948 
 7876000     299.3417   -4363.6209     6936.889    6855.3234   -727.80104    112.02954    31.722074    26.970948 
 7877000    295.90642   -4367.3353    6989.7363    6855.3149   -1051.3979    112.02954    31.722074    26.970948 
 7878000    298.66764   -4372.4923    6955.1668    6855.0874   -1185.4893    112.02954    31.722074    26.970948 
 7879000    296.49399   -4361.8665    6975.5311    6854.9836   -324.42307    112.02954    31.722074    26.970948 
 7880000    296.59534   -4376.8482    6988.9273     6854.848    142.00669    112.02954    31.722074    26.970948 
 7881000    296.01064   -4381.7755     7002.509    6855.1382   -440.81976    112.02954    31.722074    26.970948 
 7882000    296.72004   -4363.0162    6973.2528    6854.7892   -545.73856    112.02954    31.722074    26.970948 
 7883000    301.84418   -4379.4091    6916.9522    6855.3961   -767.87633    112.02954    31.722074    26.970948 
 7884000    298.55532   -4344.8421    6929.2019     6855.166   -791.57086    112.02954    31.722074    26.970948 
 7885000    295.14747   -4370.8387     7003.862    6855.0806   -312.02473    112.02954    31.722074    26.970948 
 7886000    297.09879   -4348.8061    6953.7178    6854.8824   -24.802204    112.02954    31.722074    26.970948 
 7887000    294.83815   -4351.4096    6988.5344    6854.7572   -200.81507    112.02954    31.722074    26.970948 
 7888000    294.49135   -4354.7346     6996.923      6854.86   -1214.2715    112.02954    31.722074    26.970948 
 7889000    298.30239   -4358.1712    6946.3192    6855.3361   -447.77619    112.02954    31.722074    26.970948 
 7890000    297.97805   -4332.9824    6925.6113    6855.1773   -630.45894    112.02954    31.722074    26.970948 
 7891000     296.1956   -4364.9555    6982.7822    6854.8773   -1264.5462    112.02954    31.722074    26.970948 
 7892000    300.15395   -4365.7171    6926.8109    6854.7683   -234.79142    112.02954    31.722074    26.970948 
 7893000     298.8809   -4367.8959    6947.0708    6854.6385    1011.1474    112.02954    31.722074    26.970948 
 7894000    296.25317   -4368.5417    6985.5537    6854.8862   -909.29073    112.02954    31.722074    26.970948 
 7895000     293.3928   -4367.3855     7025.538    6855.1094    -497.7912    112.02954    31.722074    26.970948 
 7896000    294.41976   -4367.8246    7011.3093     6855.132   -192.13414    112.02954    31.722074    26.970948 
 7897000    299.77274    -4354.382    6921.0845    6854.9239   -848.29428    112.02954    31.722074    26.970948 
 7898000     294.0694   -4362.0328     7010.448    6855.0507    90.849809    112.02954    31.722074    26.970948 
 7899000    299.23011   -4349.1873      6923.64    6854.9117    481.52309    112.02954    31.722074    26.970948 
 7900000      299.569   -4361.9409    6931.2332    6854.5991   -336.56738    112.02954    31.722074    26.970948 
 7901000    302.05323   -4362.8952     6896.711    6854.6594   -312.57739    112.02954    31.722074    26.970948 
 7902000    296.81256   -4369.3042    6978.1394    6854.7113   -280.91899    112.02954    31.722074    26.970948 
 7903000    296.48845   -4367.3371    6980.7208    6854.6235    57.459361    112.02954    31.722074    26.970948 
 7904000    298.80273   -4355.4385    6936.0058    6854.9127    123.30644    112.02954    31.722074    26.970948 
 7905000    298.31622   -4362.4041    6950.2373    6855.2191   -618.99175    112.02954    31.722074    26.970948 
 7906000    296.28183   -4339.9374    6956.4465    6854.7933   -210.88848    112.02954    31.722074    26.970948 
 7907000     295.4958   -4345.5434    6973.2596    6854.7564   -388.11143    112.02954    31.722074    26.970948 
 7908000    300.26059   -4384.1632    6943.9593    6854.9961   -373.13827    112.02954    31.722074    26.970948 
 7909000    299.89939     -4361.21    6925.8021    6854.6252    -280.4644    112.02954    31.722074    26.970948 
 7910000    295.89469   -4355.2268    6977.3651    6854.8844   -462.67061    112.02954    31.722074    26.970948 
 7911000    296.21442   -4361.9522    6979.4666    6854.8342   -808.63871    112.02954    31.722074    26.970948 
 7912000    299.72038   -4351.5375    6918.8365    6854.7713    152.17441    112.02954    31.722074    26.970948 
 7913000    302.25968   -4344.1809    6875.2342      6854.85    1295.7997    112.02954    31.722074    26.970948 
 7914000    293.98145   -4354.3377    7003.9305    6854.9702   -826.02351    112.02954    31.722074    26.970948 
 7915000    298.64314   -4363.7062    6946.8958    6855.2521   -109.31903    112.02954    31.722074    26.970948 
 7916000    300.16728   -4352.8927    6914.2693    6855.2418   -159.75884    112.02954    31.722074    26.970948 
 7917000    299.18345   -4356.3131    6931.6912    6855.1696   -216.23396    112.02954    31.722074    26.970948 
 7918000    297.79609   -4336.7384     6931.831    6855.0381    67.457866    112.02954    31.722074    26.970948 
 7919000    297.60814   -4350.5142     6948.106    6854.8488   -690.67497    112.02954    31.722074    26.970948 
 7920000    296.94635   -4360.8376    6968.0137    6854.9661   -109.91397    112.02954    31.722074    26.970948 
 7921000    299.39888   -4330.2961    6902.2457    6854.8228   -122.61245    112.02954    31.722074    26.970948 
 7922000    301.92336    -4354.581    6890.6503     6855.055    258.22513    112.02954    31.722074    26.970948 
 7923000    295.98157   -4352.2435    6973.4569    6855.2024   -794.04171    112.02954    31.722074    26.970948 
 7924000    299.18234   -4319.5949    6894.7296    6854.9104    128.61201    112.02954    31.722074    26.970948 
 7925000    295.36375   -4321.9263    6951.6992    6854.9241    479.15923    112.02954    31.722074    26.970948 
 7926000    302.32422   -4355.0551    6885.1519    6854.8167    209.66397    112.02954    31.722074    26.970948 
 7927000    299.99783    -4351.757     6915.569    6855.2531   -797.05448    112.02954    31.722074    26.970948 
 7928000    299.37306   -4369.1124    6941.5939    6854.9854    446.98221    112.02954    31.722074    26.970948 
 7929000    301.07102   -4357.9629    6905.9957    6854.8259    443.63069    112.02954    31.722074    26.970948 
 7930000     298.1009   -4357.5805    6947.9839    6854.7092   -53.159018    112.02954    31.722074    26.970948 
 7931000    300.46954   -4367.3556     6924.073    6854.9063   -555.77601    112.02954    31.722074    26.970948 
 7932000    301.55903   -4355.2422    6896.3994    6854.9312    363.55496    112.02954    31.722074    26.970948 
 7933000    298.49201   -4349.6408    6934.8124    6855.0722   -1076.4501    112.02954    31.722074    26.970948 
 7934000    297.18726   -4353.3852    6957.2162    6855.0673   -257.08342    112.02954    31.722074    26.970948 
 7935000    297.93096   -4343.5432    6936.7904     6855.122   -318.75132    112.02954    31.722074    26.970948 
 7936000    298.27493   -4387.7348    6975.9598    6855.0202   -591.91563    112.02954    31.722074    26.970948 
 7937000    294.44734   -4351.4009    6994.2153    6854.8563    -322.7537    112.02954    31.722074    26.970948 
 7938000    295.93146   -4357.1507    6978.7692    6854.8907    638.97917    112.02954    31.722074    26.970948 
 7939000    294.12409   -4327.5892    6974.8391    6854.6677   -739.63975    112.02954    31.722074    26.970948 
 7940000    299.94732   -4349.8353    6913.9185    6854.8019    94.469662    112.02954    31.722074    26.970948 
 7941000     297.0295   -4352.4164    6958.4205    6854.9836   -5.4531378    112.02954    31.722074    26.970948 
 7942000    301.09286   -4379.7023    6927.7436    6855.1469   -1022.7265    112.02954    31.722074    26.970948 
 7943000    299.49446   -4362.5839    6933.4237    6855.0804   -421.20178    112.02954    31.722074    26.970948 
 7944000    303.07116   -4378.6519    6898.1888    6854.9417   -665.95396    112.02954    31.722074    26.970948 
 7945000    295.44236   -4346.9198    6975.6574    6855.0132    507.57277    112.02954    31.722074    26.970948 
 7946000    300.52923   -4344.4977    6900.5055    6855.0506   -392.45568    112.02954    31.722074    26.970948 
 7947000     301.3612   -4369.1374    6913.1397    6854.9465   -577.66065    112.02954    31.722074    26.970948 
 7948000    302.44225   -4368.6404    6897.0741    6854.8422   -390.61864    112.02954    31.722074    26.970948 
 7949000    292.18054   -4340.6685    7016.1807    6855.1276    112.88539    112.02954    31.722074    26.970948 
 7950000    298.74466   -4347.9304    6929.6497     6855.234   -113.15481    112.02954    31.722074    26.970948 
 7951000    298.80198   -4367.7725    6948.4675    6855.0295   -1111.6873    112.02954    31.722074    26.970948 
 7952000    293.54019   -4360.3257    7016.3764     6855.116   -72.212561    112.02954    31.722074    26.970948 
 7953000    299.52934   -4357.7304    6927.9563    6854.9653   -101.40659    112.02954    31.722074    26.970948 
 7954000    297.15595   -4365.0218    6969.3761    6855.1426   -255.71693    112.02954    31.722074    26.970948 
 7955000     296.8083   -4358.2167    6967.3884    6854.9871   -921.98508    112.02954    31.722074    26.970948 
 7956000     296.8553   -4329.5235    6937.8694    6854.8334   -824.29244    112.02954    31.722074    26.970948 
 7957000    299.18629   -4374.6525    6949.6429    6854.8226   -302.62275    112.02954    31.722074    26.970948 
 7958000    298.76374   -4378.9383    6959.8356    6854.6849    514.51454    112.02954    31.722074    26.970948 
 7959000    295.91554    -4356.362    6978.3263    6855.0088   -1353.4926    112.02954    31.722074    26.970948 
 7960000    297.60492   -4340.2287    6937.9691    6854.9513   -766.17768    112.02954    31.722074    26.970948 
 7961000    301.63005   -4366.7538    6906.8261    6854.8621   -17.477737    112.02954    31.722074    26.970948 
 7962000    297.12944    -4334.313    6938.7159    6854.8121   -227.07854    112.02954    31.722074    26.970948 
 7963000    293.85822   -4350.9653    7002.2591    6854.9085   -324.51733    112.02954    31.722074    26.970948 
 7964000    299.05131   -4372.8915    6950.0098    6855.0196   -687.33612    112.02954    31.722074    26.970948 
 7965000    297.50602   -4377.3242    6976.6028    6855.0746   -805.00479    112.02954    31.722074    26.970948 
 7966000    299.13359    -4354.647     6930.576    6855.0073   -730.58294    112.02954    31.722074    26.970948 
 7967000    297.44651   -4346.3034    6946.4496     6855.091    235.77583    112.02954    31.722074    26.970948 
 7968000    296.38876   -4347.1326    6962.4236    6855.1047   -221.14645    112.02954    31.722074    26.970948 
 7969000     297.2694   -4354.5543    6956.8417    6854.6987    -872.6383    112.02954    31.722074    26.970948 
 7970000    298.51269   -4356.1229    6940.6756    6854.7491    93.361251    112.02954    31.722074    26.970948 
 7971000    297.95781   -4351.1475    6943.3819    6854.4933   -918.68987    112.02954    31.722074    26.970948 
 7972000    297.67853   -4374.3852    6970.8952    6854.7739   -820.85654    112.02954    31.722074    26.970948 
 7973000    299.28395   -4352.7628    6926.5709    6855.0373   -927.41615    112.02954    31.722074    26.970948 
 7974000    297.36522   -4334.5917    6935.6936    6854.8839   -743.02022    112.02954    31.722074    26.970948 
 7975000    296.50869   -4346.4779    6959.7656    6854.8171   -506.13713    112.02954    31.722074    26.970948 
 7976000    301.64077   -4380.3605    6920.3654    6854.9483   -239.27503    112.02954    31.722074    26.970948 
 7977000    296.12001   -4351.6835    6970.8878    6855.1736   -894.81464    112.02954    31.722074    26.970948 
 7978000    300.19432   -4370.4052    6931.1364    6854.9832   -112.78007    112.02954    31.722074    26.970948 
 7979000    300.96542   -4344.0122    6893.7222    6854.9925    169.58921    112.02954    31.722074    26.970948 
 7980000    295.17107   -4351.1157    6983.9029     6855.182   -759.14752    112.02954    31.722074    26.970948 
 7981000    298.97102   -4352.1236    6930.4244    6855.0534   -497.42731    112.02954    31.722074    26.970948 
 7982000     295.9668   -4358.3743      6979.68    6855.0834   -93.920316    112.02954    31.722074    26.970948 
 7983000     298.9626   -4353.3302    6931.7001    6855.0022   -311.43818    112.02954    31.722074    26.970948 
 7984000    301.11329   -4358.5688    6905.9818    6854.8108   -750.79783    112.02954    31.722074    26.970948 
 7985000    297.78035   -4357.1211    6951.8098     6854.409   -314.69699    112.02954    31.722074    26.970948 
 7986000    299.99104   -4369.5904     6933.219    6854.9727   -162.12754    112.02954    31.722074    26.970948 
 7987000    297.64242   -4360.6153     6957.997    6855.1289    -1077.283    112.02954    31.722074    26.970948 
 7988000    299.42577   -4350.2138    6922.1725    6855.2166   -300.75885    112.02954    31.722074    26.970948 
 7989000    294.56413   -4331.8054    6973.0873    6854.9946    720.39747    112.02954    31.722074    26.970948 
 7990000     293.1585   -4338.4077    7000.1452    6855.3427    307.00855    112.02954    31.722074    26.970948 
 7991000    293.19228   -4334.4168    6995.5067    6855.1783   -257.90861    112.02954    31.722074    26.970948 
 7992000    301.51374   -4352.2379     6893.915    6854.8032    233.17411    112.02954    31.722074    26.970948 
 7993000    303.13973   -4355.6827    6874.1485    6854.8515    538.45038    112.02954    31.722074    26.970948 
 7994000    294.41983   -4377.9823    7021.5308    6855.1968   -322.55313    112.02954    31.722074    26.970948 
 7995000    297.55451   -4355.5448    6954.2354    6855.1803   -918.22563    112.02954    31.722074    26.970948 
 7996000    296.35753   -4371.2014    6986.7985    6854.9642   -40.304486    112.02954    31.722074    26.970948 
 7997000     299.5063   -4360.8301    6931.3331     6854.913   -53.468894    112.02954    31.722074    26.970948 
 7998000    299.43433   -4373.1426      6944.75    6854.9877   -658.21353    112.02954    31.722074    26.970948 
 7999000    299.91907   -4353.2802    6917.9386    6854.9729    -880.6516    112.02954    31.722074    26.970948 
 8000000    299.24607   -4368.8426    6942.8104    6854.6552    234.56714    112.02954    31.722074    26.970948 
 8001000    301.09024    -4379.048    6927.0093    6855.0294   -107.66496    112.02954    31.722074    26.970948 
 8001865    298.28942   -4366.2024    6954.1582    6854.9583   -733.06546    112.02954    31.722074    26.970948 
Loop time of 1707.32 on 32 procs for 1000000 steps with 4800 atoms

Performance: 12.651 ns/day, 1.897 hours/ns, 585.713 timesteps/s
93.9% CPU use with 32 MPI tasks x no OpenMP threads

MPI task timing breakdown:
Section |  min time  |  avg time  |  max time  |%varavg| %total
---------------------------------------------------------------
Pair    | 914.94     | 1035       | 1091.4     | 116.9 | 60.62
Bond    | 50.97      | 55.415     | 58.204     |  22.4 |  3.25
Neigh   | 41.663     | 42.483     | 43.238     |   7.9 |  2.49
Comm    | 422.25     | 478.24     | 608.28     | 191.0 | 28.01
Output  | 0.28756    | 0.31421    | 0.42685    |   5.0 |  0.02
Modify  | 2.9876     | 3.5143     | 4.0099     |  14.0 |  0.21
Other   |            | 92.38      |            |       |  5.41

Nlocal:    150 ave 163 max 139 min
Histogram: 2 1 6 5 2 6 8 1 0 1
Nghost:    2925.59 ave 2965 max 2862 min
Histogram: 1 2 1 2 3 7 3 4 5 4
Neighs:    30304.2 ave 33732 max 27822 min
Histogram: 2 1 5 6 10 5 1 1 0 1

Total # of neighbors = 969734
Ave neighs/atom = 202.028
Ave special neighs/atom = 6
Neighbor list builds = 20000
Dangerous builds not checked

# --------------- Fix Heat -----------------

compute   ke all ke/atom
variable  temp atom c_ke/0.003
#fix       3 all ave/spatial 1 20000 20000 x lower 2.5 v_temp file tmp.profile units box
compute cc1 all chunk/atom bin/1d x lower 2.5 units box
fix 3 all ave/chunk 1 20000 20000 cc1 v_temp file temp.profile

fix 7 qin langevin 315.0 315.0 50.0 123456 tally yes
fix 8 qout langevin 285.0 285.0 50.0 123457 tally yes

log en_ex.log
