LAMMPS Description # full

5 atoms
4 bonds
3 angles
2 dihedrals
1 impropers

4 atom types
3 bond types
2 angle types
1 dihedral types
1 improper types

0 6.4394 xlo xhi
0 6.3701 ylo yhi
0 4.8722 zlo zhi

Masses

1 15.0350 # C CH3 Isobutane 84 #
2 15.9990 # O OH Alcohol Hydroxyl 104 #
3 1.0080 # H H Alcohol Hydroxyl 105 #
4 13.0190 # C CH Isopropanol 108 #

Pair Coeffs

1 0.1600 3.9100
2 0.1700 3.0700
3 0.0000 0.0000
4 0.0800 3.8500

Bond Coeffs

1 260.0000 1.5260
2 553.0000 0.9450
3 386.0000 1.4250

Angle Coeffs

1 55.0000 108.5000
2 80.0000 109.5000

Dihedral Coeffs

1 0.0000 0.0000 1.0000 0.0000

Improper Coeffs

1 14.0000 -1 3

Atoms

1 1 1 0.0000 -1.1196 -1.0188 -0.2959
2 1 4 0.2650 -0.4063 0.0229 0.5613
3 1 1 0.0000 -0.5950 1.3513 -0.1658
4 1 2 -0.7000 0.9761 -0.3228 0.5692
5 1 3 0.4350 1.3198 -0.2041 -0.3031

Bonds

1 3 1 2
2 1 2 3
3 3 2 4
4 2 4 5

Angles

1 2 1 2 4
2 2 3 2 4
3 1 2 4 5

Dihedrals

1 1 1 2 4 5
2 1 3 2 4 5

Impropers

1 1 1 3 2 4

