LAMMPS Description # full

50000 atoms
0 bonds
0 angles
0 dihedrals
0 impropers

1 atom types
0 bond types
0 angle types
0 dihedral types
0 improper types

0 148.0000 xlo xhi
0 148.0000 ylo yhi
0 148.0000 zlo zhi

Masses

1 39.9480 # Ar Argon Atom 211 #

Pair Coeffs

1 0.2340 3.4010

Atoms

1 1 1 0.0000 32.0000 80.0000 84.0000
2 2 1 0.0000 92.0000 40.0000 68.0000
3 3 1 0.0000 68.0000 92.0000 72.0000
4 4 1 0.0000 40.0000 128.0000 116.0000
5 5 1 0.0000 16.0000 0.0000 136.0000
6 6 1 0.0000 32.0000 48.0000 52.0000
7 7 1 0.0000 8.0000 20.0000 120.0000
8 8 1 0.0000 36.0000 56.0000 108.0000
9 9 1 0.0000 124.0000 56.0000 40.0000
10 10 1 0.0000 112.0000 76.0000 64.0000
11 11 1 0.0000 16.0000 100.0000 52.0000
12 12 1 0.0000 8.0000 108.0000 88.0000
13 13 1 0.0000 128.0000 144.0000 8.0000
14 14 1 0.0000 140.0000 68.0000 76.0000
15 15 1 0.0000 96.0000 48.0000 84.0000
16 16 1 0.0000 24.0000 104.0000 100.0000
17 17 1 0.0000 92.0000 68.0000 28.0000
18 18 1 0.0000 92.0000 80.0000 104.0000
19 19 1 0.0000 108.0000 72.0000 108.0000
20 20 1 0.0000 68.0000 140.0000 0.0000
21 21 1 0.0000 144.0000 72.0000 108.0000
22 22 1 0.0000 48.0000 24.0000 16.0000
23 23 1 0.0000 68.0000 4.0000 72.0000
24 24 1 0.0000 20.0000 104.0000 100.0000
25 25 1 0.0000 96.0000 44.0000 24.0000
26 26 1 0.0000 108.0000 116.0000 116.0000
27 27 1 0.0000 44.0000 100.0000 4.0000
28 28 1 0.0000 100.0000 28.0000 120.0000
29 29 1 0.0000 52.0000 44.0000 128.0000
30 30 1 0.0000 96.0000 92.0000 104.0000
31 31 1 0.0000 64.0000 104.0000 48.0000
32 32 1 0.0000 124.0000 36.0000 60.0000
33 33 1 0.0000 132.0000 8.0000 84.0000
34 34 1 0.0000 128.0000 92.0000 144.0000
35 35 1 0.0000 88.0000 132.0000 44.0000
36 36 1 0.0000 68.0000 120.0000 132.0000
37 37 1 0.0000 52.0000 32.0000 32.0000
38 38 1 0.0000 0.0000 12.0000 40.0000
39 39 1 0.0000 12.0000 44.0000 104.0000
40 40 1 0.0000 132.0000 88.0000 120.0000
41 41 1 0.0000 136.0000 100.0000 4.0000
42 42 1 0.0000 136.0000 80.0000 120.0000
43 43 1 0.0000 116.0000 24.0000 112.0000
44 44 1 0.0000 88.0000 28.0000 36.0000
45 45 1 0.0000 20.0000 112.0000 60.0000
46 46 1 0.0000 120.0000 124.0000 108.0000
47 47 1 0.0000 76.0000 64.0000 20.0000
48 48 1 0.0000 92.0000 16.0000 116.0000
49 49 1 0.0000 28.0000 112.0000 12.0000
50 50 1 0.0000 28.0000 48.0000 116.0000
51 51 1 0.0000 72.0000 28.0000 80.0000
52 52 1 0.0000 116.0000 132.0000 12.0000
53 53 1 0.0000 112.0000 28.0000 40.0000
54 54 1 0.0000 16.0000 80.0000 124.0000
55 55 1 0.0000 44.0000 20.0000 56.0000
56 56 1 0.0000 140.0000 124.0000 28.0000
57 57 1 0.0000 20.0000 12.0000 40.0000
58 58 1 0.0000 84.0000 48.0000 44.0000
59 59 1 0.0000 136.0000 128.0000 16.0000
60 60 1 0.0000 16.0000 96.0000 120.0000
61 61 1 0.0000 60.0000 60.0000 80.0000
62 62 1 0.0000 44.0000 40.0000 124.0000
63 63 1 0.0000 140.0000 112.0000 144.0000
64 64 1 0.0000 4.0000 8.0000 128.0000
65 65 1 0.0000 36.0000 112.0000 72.0000
66 66 1 0.0000 20.0000 20.0000 140.0000
67 67 1 0.0000 0.0000 60.0000 76.0000
68 68 1 0.0000 40.0000 4.0000 72.0000
69 69 1 0.0000 136.0000 44.0000 20.0000
70 70 1 0.0000 48.0000 48.0000 140.0000
71 71 1 0.0000 84.0000 96.0000 136.0000
72 72 1 0.0000 140.0000 72.0000 60.0000
73 73 1 0.0000 52.0000 92.0000 52.0000
74 74 1 0.0000 92.0000 24.0000 96.0000
75 75 1 0.0000 144.0000 16.0000 56.0000
76 76 1 0.0000 120.0000 40.0000 76.0000
77 77 1 0.0000 124.0000 76.0000 68.0000
78 78 1 0.0000 36.0000 84.0000 12.0000
79 79 1 0.0000 140.0000 120.0000 8.0000
80 80 1 0.0000 100.0000 40.0000 92.0000
81 81 1 0.0000 84.0000 20.0000 124.0000
82 82 1 0.0000 120.0000 96.0000 72.0000
83 83 1 0.0000 4.0000 28.0000 132.0000
84 84 1 0.0000 128.0000 144.0000 104.0000
85 85 1 0.0000 16.0000 140.0000 144.0000
86 86 1 0.0000 68.0000 80.0000 144.0000
87 87 1 0.0000 60.0000 104.0000 40.0000
88 88 1 0.0000 116.0000 120.0000 60.0000
89 89 1 0.0000 76.0000 128.0000 8.0000
90 90 1 0.0000 104.0000 64.0000 140.0000
91 91 1 0.0000 80.0000 40.0000 76.0000
92 92 1 0.0000 104.0000 52.0000 32.0000
93 93 1 0.0000 40.0000 48.0000 4.0000
94 94 1 0.0000 72.0000 24.0000 76.0000
95 95 1 0.0000 144.0000 8.0000 40.0000
96 96 1 0.0000 68.0000 56.0000 68.0000
97 97 1 0.0000 136.0000 12.0000 48.0000
98 98 1 0.0000 100.0000 88.0000 24.0000
99 99 1 0.0000 84.0000 0.0000 20.0000
100 100 1 0.0000 40.0000 136.0000 128.0000
101 101 1 0.0000 100.0000 108.0000 32.0000
102 102 1 0.0000 64.0000 136.0000 72.0000
103 103 1 0.0000 16.0000 12.0000 112.0000
104 104 1 0.0000 132.0000 44.0000 28.0000
105 105 1 0.0000 80.0000 88.0000 60.0000
106 106 1 0.0000 4.0000 72.0000 92.0000
107 107 1 0.0000 124.0000 76.0000 40.0000
108 108 1 0.0000 80.0000 48.0000 68.0000
109 109 1 0.0000 8.0000 124.0000 140.0000
110 110 1 0.0000 20.0000 128.0000 20.0000
111 111 1 0.0000 128.0000 116.0000 144.0000
112 112 1 0.0000 4.0000 136.0000 84.0000
113 113 1 0.0000 144.0000 16.0000 72.0000
114 114 1 0.0000 88.0000 132.0000 136.0000
115 115 1 0.0000 36.0000 8.0000 80.0000
116 116 1 0.0000 104.0000 0.0000 140.0000
117 117 1 0.0000 24.0000 120.0000 132.0000
118 118 1 0.0000 32.0000 56.0000 112.0000
119 119 1 0.0000 44.0000 116.0000 136.0000
120 120 1 0.0000 104.0000 52.0000 88.0000
121 121 1 0.0000 140.0000 0.0000 124.0000
122 122 1 0.0000 76.0000 4.0000 12.0000
123 123 1 0.0000 112.0000 56.0000 24.0000
124 124 1 0.0000 96.0000 132.0000 92.0000
125 125 1 0.0000 44.0000 44.0000 28.0000
126 126 1 0.0000 132.0000 36.0000 52.0000
127 127 1 0.0000 24.0000 12.0000 112.0000
128 128 1 0.0000 140.0000 64.0000 132.0000
129 129 1 0.0000 88.0000 124.0000 72.0000
130 130 1 0.0000 68.0000 88.0000 88.0000
131 131 1 0.0000 128.0000 44.0000 100.0000
132 132 1 0.0000 128.0000 120.0000 12.0000
133 133 1 0.0000 16.0000 48.0000 16.0000
134 134 1 0.0000 140.0000 92.0000 4.0000
135 135 1 0.0000 144.0000 64.0000 0.0000
136 136 1 0.0000 20.0000 64.0000 100.0000
137 137 1 0.0000 76.0000 136.0000 120.0000
138 138 1 0.0000 140.0000 124.0000 124.0000
139 139 1 0.0000 44.0000 64.0000 84.0000
140 140 1 0.0000 44.0000 128.0000 28.0000
141 141 1 0.0000 136.0000 72.0000 92.0000
142 142 1 0.0000 128.0000 144.0000 68.0000
143 143 1 0.0000 128.0000 140.0000 56.0000
144 144 1 0.0000 96.0000 108.0000 28.0000
145 145 1 0.0000 104.0000 100.0000 92.0000
146 146 1 0.0000 20.0000 124.0000 108.0000
147 147 1 0.0000 32.0000 20.0000 76.0000
148 148 1 0.0000 120.0000 120.0000 4.0000
149 149 1 0.0000 8.0000 108.0000 60.0000
150 150 1 0.0000 140.0000 116.0000 96.0000
151 151 1 0.0000 0.0000 128.0000 52.0000
152 152 1 0.0000 96.0000 20.0000 8.0000
153 153 1 0.0000 76.0000 24.0000 100.0000
154 154 1 0.0000 40.0000 48.0000 16.0000
155 155 1 0.0000 144.0000 60.0000 116.0000
156 156 1 0.0000 140.0000 68.0000 124.0000
157 157 1 0.0000 52.0000 128.0000 12.0000
158 158 1 0.0000 48.0000 92.0000 52.0000
159 159 1 0.0000 64.0000 68.0000 112.0000
160 160 1 0.0000 12.0000 96.0000 140.0000
161 161 1 0.0000 96.0000 8.0000 56.0000
162 162 1 0.0000 128.0000 100.0000 20.0000
163 163 1 0.0000 128.0000 32.0000 60.0000
164 164 1 0.0000 4.0000 20.0000 132.0000
165 165 1 0.0000 132.0000 128.0000 56.0000
166 166 1 0.0000 52.0000 104.0000 124.0000
167 167 1 0.0000 8.0000 48.0000 84.0000
168 168 1 0.0000 108.0000 48.0000 108.0000
169 169 1 0.0000 36.0000 140.0000 12.0000
170 170 1 0.0000 88.0000 88.0000 12.0000
171 171 1 0.0000 32.0000 20.0000 88.0000
172 172 1 0.0000 16.0000 128.0000 120.0000
173 173 1 0.0000 8.0000 80.0000 104.0000
174 174 1 0.0000 36.0000 8.0000 124.0000
175 175 1 0.0000 48.0000 24.0000 120.0000
176 176 1 0.0000 8.0000 56.0000 84.0000
177 177 1 0.0000 16.0000 4.0000 60.0000
178 178 1 0.0000 124.0000 36.0000 40.0000
179 179 1 0.0000 16.0000 20.0000 32.0000
180 180 1 0.0000 88.0000 24.0000 96.0000
181 181 1 0.0000 16.0000 124.0000 40.0000
182 182 1 0.0000 20.0000 72.0000 88.0000
183 183 1 0.0000 48.0000 8.0000 4.0000
184 184 1 0.0000 36.0000 136.0000 84.0000
185 185 1 0.0000 88.0000 72.0000 16.0000
186 186 1 0.0000 112.0000 120.0000 68.0000
187 187 1 0.0000 72.0000 136.0000 32.0000
188 188 1 0.0000 128.0000 12.0000 16.0000
189 189 1 0.0000 64.0000 144.0000 120.0000
190 190 1 0.0000 140.0000 20.0000 52.0000
191 191 1 0.0000 124.0000 96.0000 64.0000
192 192 1 0.0000 12.0000 136.0000 28.0000
193 193 1 0.0000 16.0000 64.0000 28.0000
194 194 1 0.0000 12.0000 140.0000 60.0000
195 195 1 0.0000 32.0000 72.0000 96.0000
196 196 1 0.0000 100.0000 48.0000 72.0000
197 197 1 0.0000 104.0000 36.0000 88.0000
198 198 1 0.0000 36.0000 32.0000 16.0000
199 199 1 0.0000 104.0000 64.0000 36.0000
200 200 1 0.0000 36.0000 28.0000 72.0000
201 201 1 0.0000 100.0000 144.0000 12.0000
202 202 1 0.0000 20.0000 48.0000 116.0000
203 203 1 0.0000 124.0000 52.0000 48.0000
204 204 1 0.0000 64.0000 24.0000 120.0000
205 205 1 0.0000 120.0000 4.0000 64.0000
206 206 1 0.0000 60.0000 96.0000 28.0000
207 207 1 0.0000 68.0000 132.0000 96.0000
208 208 1 0.0000 40.0000 28.0000 28.0000
209 209 1 0.0000 4.0000 144.0000 80.0000
210 210 1 0.0000 48.0000 100.0000 132.0000
211 211 1 0.0000 0.0000 92.0000 84.0000
212 212 1 0.0000 48.0000 64.0000 140.0000
213 213 1 0.0000 4.0000 4.0000 44.0000
214 214 1 0.0000 116.0000 96.0000 20.0000
215 215 1 0.0000 96.0000 56.0000 76.0000
216 216 1 0.0000 60.0000 124.0000 140.0000
217 217 1 0.0000 8.0000 128.0000 12.0000
218 218 1 0.0000 92.0000 60.0000 136.0000
219 219 1 0.0000 100.0000 136.0000 112.0000
220 220 1 0.0000 128.0000 88.0000 124.0000
221 221 1 0.0000 32.0000 116.0000 84.0000
222 222 1 0.0000 32.0000 144.0000 40.0000
223 223 1 0.0000 4.0000 68.0000 68.0000
224 224 1 0.0000 68.0000 72.0000 48.0000
225 225 1 0.0000 32.0000 8.0000 124.0000
226 226 1 0.0000 96.0000 124.0000 136.0000
227 227 1 0.0000 108.0000 104.0000 96.0000
228 228 1 0.0000 20.0000 64.0000 116.0000
229 229 1 0.0000 40.0000 100.0000 136.0000
230 230 1 0.0000 24.0000 20.0000 52.0000
231 231 1 0.0000 52.0000 84.0000 4.0000
232 232 1 0.0000 76.0000 56.0000 108.0000
233 233 1 0.0000 88.0000 128.0000 136.0000
234 234 1 0.0000 60.0000 116.0000 116.0000
235 235 1 0.0000 124.0000 84.0000 56.0000
236 236 1 0.0000 44.0000 28.0000 56.0000
237 237 1 0.0000 140.0000 144.0000 72.0000
238 238 1 0.0000 112.0000 128.0000 104.0000
239 239 1 0.0000 72.0000 104.0000 84.0000
240 240 1 0.0000 84.0000 96.0000 128.0000
241 241 1 0.0000 40.0000 136.0000 56.0000
242 242 1 0.0000 48.0000 52.0000 24.0000
243 243 1 0.0000 116.0000 4.0000 112.0000
244 244 1 0.0000 136.0000 80.0000 144.0000
245 245 1 0.0000 128.0000 20.0000 112.0000
246 246 1 0.0000 52.0000 36.0000 12.0000
247 247 1 0.0000 132.0000 24.0000 132.0000
248 248 1 0.0000 52.0000 28.0000 60.0000
249 249 1 0.0000 20.0000 144.0000 52.0000
250 250 1 0.0000 76.0000 76.0000 100.0000
251 251 1 0.0000 116.0000 40.0000 80.0000
252 252 1 0.0000 68.0000 16.0000 40.0000
253 253 1 0.0000 72.0000 92.0000 8.0000
254 254 1 0.0000 136.0000 60.0000 132.0000
255 255 1 0.0000 128.0000 24.0000 136.0000
256 256 1 0.0000 64.0000 84.0000 36.0000
257 257 1 0.0000 68.0000 96.0000 44.0000
258 258 1 0.0000 16.0000 36.0000 56.0000
259 259 1 0.0000 132.0000 48.0000 140.0000
260 260 1 0.0000 100.0000 80.0000 68.0000
261 261 1 0.0000 16.0000 36.0000 76.0000
262 262 1 0.0000 140.0000 128.0000 48.0000
263 263 1 0.0000 24.0000 56.0000 16.0000
264 264 1 0.0000 128.0000 20.0000 32.0000
265 265 1 0.0000 120.0000 8.0000 60.0000
266 266 1 0.0000 16.0000 80.0000 8.0000
267 267 1 0.0000 92.0000 48.0000 24.0000
268 268 1 0.0000 132.0000 124.0000 80.0000
269 269 1 0.0000 100.0000 28.0000 8.0000
270 270 1 0.0000 0.0000 84.0000 4.0000
271 271 1 0.0000 28.0000 136.0000 40.0000
272 272 1 0.0000 56.0000 16.0000 124.0000
273 273 1 0.0000 48.0000 140.0000 92.0000
274 274 1 0.0000 32.0000 84.0000 20.0000
275 275 1 0.0000 128.0000 120.0000 44.0000
276 276 1 0.0000 64.0000 104.0000 116.0000
277 277 1 0.0000 68.0000 20.0000 20.0000
278 278 1 0.0000 128.0000 44.0000 60.0000
279 279 1 0.0000 120.0000 12.0000 136.0000
280 280 1 0.0000 48.0000 140.0000 84.0000
281 281 1 0.0000 124.0000 8.0000 56.0000
282 282 1 0.0000 68.0000 40.0000 88.0000
283 283 1 0.0000 56.0000 20.0000 116.0000
284 284 1 0.0000 116.0000 116.0000 100.0000
285 285 1 0.0000 124.0000 84.0000 24.0000
286 286 1 0.0000 28.0000 108.0000 132.0000
287 287 1 0.0000 124.0000 0.0000 100.0000
288 288 1 0.0000 4.0000 112.0000 60.0000
289 289 1 0.0000 52.0000 136.0000 12.0000
290 290 1 0.0000 64.0000 12.0000 108.0000
291 291 1 0.0000 40.0000 64.0000 116.0000
292 292 1 0.0000 120.0000 88.0000 68.0000
293 293 1 0.0000 92.0000 40.0000 64.0000
294 294 1 0.0000 108.0000 108.0000 104.0000
295 295 1 0.0000 32.0000 144.0000 52.0000
296 296 1 0.0000 40.0000 132.0000 8.0000
297 297 1 0.0000 96.0000 92.0000 56.0000
298 298 1 0.0000 144.0000 124.0000 132.0000
299 299 1 0.0000 40.0000 80.0000 72.0000
300 300 1 0.0000 56.0000 96.0000 60.0000
301 301 1 0.0000 112.0000 84.0000 52.0000
302 302 1 0.0000 40.0000 20.0000 80.0000
303 303 1 0.0000 128.0000 136.0000 72.0000
304 304 1 0.0000 0.0000 8.0000 44.0000
305 305 1 0.0000 144.0000 120.0000 112.0000
306 306 1 0.0000 116.0000 24.0000 104.0000
307 307 1 0.0000 136.0000 144.0000 132.0000
308 308 1 0.0000 48.0000 112.0000 16.0000
309 309 1 0.0000 8.0000 136.0000 72.0000
310 310 1 0.0000 48.0000 28.0000 72.0000
311 311 1 0.0000 12.0000 64.0000 112.0000
312 312 1 0.0000 56.0000 68.0000 12.0000
313 313 1 0.0000 84.0000 36.0000 120.0000
314 314 1 0.0000 140.0000 80.0000 48.0000
315 315 1 0.0000 76.0000 40.0000 64.0000
316 316 1 0.0000 76.0000 120.0000 96.0000
317 317 1 0.0000 4.0000 104.0000 48.0000
318 318 1 0.0000 108.0000 36.0000 100.0000
319 319 1 0.0000 112.0000 20.0000 32.0000
320 320 1 0.0000 84.0000 84.0000 76.0000
321 321 1 0.0000 36.0000 92.0000 76.0000
322 322 1 0.0000 52.0000 92.0000 40.0000
323 323 1 0.0000 80.0000 88.0000 24.0000
324 324 1 0.0000 72.0000 44.0000 84.0000
325 325 1 0.0000 48.0000 104.0000 52.0000
326 326 1 0.0000 108.0000 32.0000 92.0000
327 327 1 0.0000 36.0000 64.0000 60.0000
328 328 1 0.0000 96.0000 64.0000 52.0000
329 329 1 0.0000 136.0000 64.0000 0.0000
330 330 1 0.0000 56.0000 100.0000 92.0000
331 331 1 0.0000 120.0000 0.0000 136.0000
332 332 1 0.0000 32.0000 56.0000 136.0000
333 333 1 0.0000 48.0000 84.0000 24.0000
334 334 1 0.0000 64.0000 72.0000 116.0000
335 335 1 0.0000 76.0000 24.0000 144.0000
336 336 1 0.0000 80.0000 92.0000 56.0000
337 337 1 0.0000 0.0000 136.0000 92.0000
338 338 1 0.0000 112.0000 84.0000 112.0000
339 339 1 0.0000 100.0000 108.0000 52.0000
340 340 1 0.0000 96.0000 16.0000 28.0000
341 341 1 0.0000 80.0000 88.0000 28.0000
342 342 1 0.0000 108.0000 32.0000 40.0000
343 343 1 0.0000 88.0000 100.0000 20.0000
344 344 1 0.0000 88.0000 100.0000 68.0000
345 345 1 0.0000 100.0000 68.0000 112.0000
346 346 1 0.0000 52.0000 12.0000 36.0000
347 347 1 0.0000 36.0000 132.0000 128.0000
348 348 1 0.0000 128.0000 28.0000 24.0000
349 349 1 0.0000 132.0000 100.0000 64.0000
350 350 1 0.0000 24.0000 8.0000 112.0000
351 351 1 0.0000 124.0000 8.0000 72.0000
352 352 1 0.0000 4.0000 116.0000 136.0000
353 353 1 0.0000 140.0000 136.0000 60.0000
354 354 1 0.0000 104.0000 56.0000 104.0000
355 355 1 0.0000 100.0000 12.0000 120.0000
356 356 1 0.0000 116.0000 64.0000 88.0000
357 357 1 0.0000 40.0000 132.0000 96.0000
358 358 1 0.0000 64.0000 128.0000 60.0000
359 359 1 0.0000 124.0000 72.0000 64.0000
360 360 1 0.0000 84.0000 112.0000 8.0000
361 361 1 0.0000 44.0000 124.0000 124.0000
362 362 1 0.0000 88.0000 0.0000 132.0000
363 363 1 0.0000 20.0000 72.0000 52.0000
364 364 1 0.0000 4.0000 24.0000 108.0000
365 365 1 0.0000 8.0000 108.0000 92.0000
366 366 1 0.0000 44.0000 36.0000 16.0000
367 367 1 0.0000 16.0000 32.0000 136.0000
368 368 1 0.0000 96.0000 140.0000 100.0000
369 369 1 0.0000 144.0000 112.0000 84.0000
370 370 1 0.0000 40.0000 4.0000 144.0000
371 371 1 0.0000 28.0000 8.0000 80.0000
372 372 1 0.0000 56.0000 20.0000 28.0000
373 373 1 0.0000 24.0000 52.0000 100.0000
374 374 1 0.0000 120.0000 12.0000 92.0000
375 375 1 0.0000 92.0000 76.0000 64.0000
376 376 1 0.0000 80.0000 68.0000 36.0000
377 377 1 0.0000 28.0000 120.0000 44.0000
378 378 1 0.0000 56.0000 104.0000 108.0000
379 379 1 0.0000 88.0000 96.0000 64.0000
380 380 1 0.0000 92.0000 52.0000 68.0000
381 381 1 0.0000 0.0000 8.0000 72.0000
382 382 1 0.0000 44.0000 16.0000 92.0000
383 383 1 0.0000 132.0000 56.0000 16.0000
384 384 1 0.0000 52.0000 68.0000 112.0000
385 385 1 0.0000 120.0000 28.0000 68.0000
386 386 1 0.0000 68.0000 108.0000 36.0000
387 387 1 0.0000 28.0000 136.0000 8.0000
388 388 1 0.0000 116.0000 80.0000 4.0000
389 389 1 0.0000 16.0000 20.0000 120.0000
390 390 1 0.0000 68.0000 76.0000 16.0000
391 391 1 0.0000 52.0000 72.0000 8.0000
392 392 1 0.0000 80.0000 124.0000 8.0000
393 393 1 0.0000 8.0000 36.0000 108.0000
394 394 1 0.0000 68.0000 0.0000 132.0000
395 395 1 0.0000 40.0000 124.0000 28.0000
396 396 1 0.0000 52.0000 40.0000 128.0000
397 397 1 0.0000 32.0000 100.0000 124.0000
398 398 1 0.0000 108.0000 12.0000 92.0000
399 399 1 0.0000 116.0000 104.0000 64.0000
400 400 1 0.0000 92.0000 0.0000 24.0000
401 401 1 0.0000 140.0000 64.0000 36.0000
402 402 1 0.0000 136.0000 84.0000 140.0000
403 403 1 0.0000 40.0000 24.0000 72.0000
404 404 1 0.0000 16.0000 28.0000 88.0000
405 405 1 0.0000 144.0000 108.0000 120.0000
406 406 1 0.0000 0.0000 128.0000 136.0000
407 407 1 0.0000 112.0000 16.0000 92.0000
408 408 1 0.0000 36.0000 124.0000 64.0000
409 409 1 0.0000 0.0000 84.0000 124.0000
410 410 1 0.0000 108.0000 88.0000 112.0000
411 411 1 0.0000 96.0000 16.0000 120.0000
412 412 1 0.0000 28.0000 68.0000 128.0000
413 413 1 0.0000 136.0000 120.0000 124.0000
414 414 1 0.0000 80.0000 0.0000 80.0000
415 415 1 0.0000 12.0000 0.0000 80.0000
416 416 1 0.0000 12.0000 88.0000 20.0000
417 417 1 0.0000 132.0000 140.0000 44.0000
418 418 1 0.0000 56.0000 48.0000 0.0000
419 419 1 0.0000 12.0000 52.0000 72.0000
420 420 1 0.0000 104.0000 16.0000 120.0000
421 421 1 0.0000 132.0000 24.0000 88.0000
422 422 1 0.0000 92.0000 68.0000 116.0000
423 423 1 0.0000 128.0000 40.0000 36.0000
424 424 1 0.0000 80.0000 44.0000 120.0000
425 425 1 0.0000 136.0000 0.0000 132.0000
426 426 1 0.0000 52.0000 140.0000 40.0000
427 427 1 0.0000 72.0000 88.0000 36.0000
428 428 1 0.0000 72.0000 60.0000 68.0000
429 429 1 0.0000 116.0000 108.0000 128.0000
430 430 1 0.0000 92.0000 108.0000 96.0000
431 431 1 0.0000 136.0000 76.0000 32.0000
432 432 1 0.0000 20.0000 104.0000 64.0000
433 433 1 0.0000 68.0000 144.0000 76.0000
434 434 1 0.0000 8.0000 96.0000 116.0000
435 435 1 0.0000 56.0000 48.0000 144.0000
436 436 1 0.0000 56.0000 92.0000 140.0000
437 437 1 0.0000 128.0000 84.0000 88.0000
438 438 1 0.0000 136.0000 104.0000 48.0000
439 439 1 0.0000 32.0000 8.0000 32.0000
440 440 1 0.0000 92.0000 140.0000 4.0000
441 441 1 0.0000 100.0000 88.0000 56.0000
442 442 1 0.0000 28.0000 36.0000 128.0000
443 443 1 0.0000 64.0000 80.0000 84.0000
444 444 1 0.0000 32.0000 96.0000 48.0000
445 445 1 0.0000 20.0000 60.0000 96.0000
446 446 1 0.0000 140.0000 68.0000 28.0000
447 447 1 0.0000 76.0000 28.0000 4.0000
448 448 1 0.0000 108.0000 16.0000 112.0000
449 449 1 0.0000 120.0000 0.0000 96.0000
450 450 1 0.0000 124.0000 64.0000 104.0000
451 451 1 0.0000 72.0000 84.0000 56.0000
452 452 1 0.0000 76.0000 136.0000 68.0000
453 453 1 0.0000 144.0000 100.0000 96.0000
454 454 1 0.0000 100.0000 8.0000 120.0000
455 455 1 0.0000 76.0000 64.0000 96.0000
456 456 1 0.0000 76.0000 128.0000 60.0000
457 457 1 0.0000 128.0000 8.0000 84.0000
458 458 1 0.0000 84.0000 88.0000 60.0000
459 459 1 0.0000 120.0000 136.0000 32.0000
460 460 1 0.0000 4.0000 144.0000 88.0000
461 461 1 0.0000 36.0000 76.0000 132.0000
462 462 1 0.0000 92.0000 92.0000 52.0000
463 463 1 0.0000 24.0000 136.0000 140.0000
464 464 1 0.0000 96.0000 16.0000 96.0000
465 465 1 0.0000 32.0000 16.0000 8.0000
466 466 1 0.0000 12.0000 108.0000 124.0000
467 467 1 0.0000 4.0000 60.0000 8.0000
468 468 1 0.0000 144.0000 48.0000 0.0000
469 469 1 0.0000 116.0000 144.0000 84.0000
470 470 1 0.0000 140.0000 0.0000 68.0000
471 471 1 0.0000 104.0000 40.0000 116.0000
472 472 1 0.0000 92.0000 12.0000 8.0000
473 473 1 0.0000 80.0000 144.0000 88.0000
474 474 1 0.0000 52.0000 68.0000 36.0000
475 475 1 0.0000 144.0000 44.0000 132.0000
476 476 1 0.0000 72.0000 112.0000 128.0000
477 477 1 0.0000 96.0000 4.0000 100.0000
478 478 1 0.0000 108.0000 84.0000 60.0000
479 479 1 0.0000 28.0000 36.0000 20.0000
480 480 1 0.0000 16.0000 92.0000 84.0000
481 481 1 0.0000 4.0000 88.0000 92.0000
482 482 1 0.0000 124.0000 92.0000 60.0000
483 483 1 0.0000 104.0000 124.0000 44.0000
484 484 1 0.0000 92.0000 124.0000 72.0000
485 485 1 0.0000 52.0000 28.0000 84.0000
486 486 1 0.0000 32.0000 20.0000 128.0000
487 487 1 0.0000 24.0000 124.0000 104.0000
488 488 1 0.0000 68.0000 116.0000 80.0000
489 489 1 0.0000 12.0000 140.0000 136.0000
490 490 1 0.0000 108.0000 124.0000 0.0000
491 491 1 0.0000 16.0000 96.0000 8.0000
492 492 1 0.0000 120.0000 136.0000 24.0000
493 493 1 0.0000 140.0000 60.0000 24.0000
494 494 1 0.0000 96.0000 8.0000 120.0000
495 495 1 0.0000 140.0000 36.0000 116.0000
496 496 1 0.0000 40.0000 60.0000 88.0000
497 497 1 0.0000 96.0000 88.0000 124.0000
498 498 1 0.0000 104.0000 88.0000 132.0000
499 499 1 0.0000 24.0000 132.0000 44.0000
500 500 1 0.0000 12.0000 104.0000 124.0000
501 501 1 0.0000 36.0000 124.0000 120.0000
502 502 1 0.0000 24.0000 28.0000 68.0000
503 503 1 0.0000 128.0000 96.0000 120.0000
504 504 1 0.0000 104.0000 140.0000 68.0000
505 505 1 0.0000 20.0000 40.0000 96.0000
506 506 1 0.0000 32.0000 60.0000 128.0000
507 507 1 0.0000 104.0000 68.0000 48.0000
508 508 1 0.0000 16.0000 4.0000 128.0000
509 509 1 0.0000 104.0000 100.0000 52.0000
510 510 1 0.0000 20.0000 116.0000 96.0000
511 511 1 0.0000 132.0000 100.0000 0.0000
512 512 1 0.0000 76.0000 120.0000 16.0000
513 513 1 0.0000 72.0000 16.0000 116.0000
514 514 1 0.0000 104.0000 136.0000 92.0000
515 515 1 0.0000 124.0000 88.0000 68.0000
516 516 1 0.0000 104.0000 48.0000 104.0000
517 517 1 0.0000 48.0000 20.0000 0.0000
518 518 1 0.0000 108.0000 144.0000 140.0000
519 519 1 0.0000 8.0000 4.0000 32.0000
520 520 1 0.0000 32.0000 4.0000 96.0000
521 521 1 0.0000 52.0000 88.0000 64.0000
522 522 1 0.0000 44.0000 128.0000 20.0000
523 523 1 0.0000 64.0000 28.0000 60.0000
524 524 1 0.0000 108.0000 88.0000 104.0000
525 525 1 0.0000 64.0000 0.0000 108.0000
526 526 1 0.0000 144.0000 28.0000 0.0000
527 527 1 0.0000 68.0000 144.0000 84.0000
528 528 1 0.0000 112.0000 128.0000 132.0000
529 529 1 0.0000 112.0000 72.0000 128.0000
530 530 1 0.0000 104.0000 84.0000 124.0000
531 531 1 0.0000 36.0000 76.0000 60.0000
532 532 1 0.0000 100.0000 52.0000 128.0000
533 533 1 0.0000 68.0000 116.0000 136.0000
534 534 1 0.0000 108.0000 88.0000 124.0000
535 535 1 0.0000 76.0000 132.0000 68.0000
536 536 1 0.0000 20.0000 128.0000 12.0000
537 537 1 0.0000 136.0000 120.0000 56.0000
538 538 1 0.0000 60.0000 36.0000 76.0000
539 539 1 0.0000 76.0000 12.0000 144.0000
540 540 1 0.0000 140.0000 136.0000 80.0000
541 541 1 0.0000 36.0000 84.0000 88.0000
542 542 1 0.0000 104.0000 20.0000 124.0000
543 543 1 0.0000 16.0000 32.0000 108.0000
544 544 1 0.0000 84.0000 128.0000 120.0000
545 545 1 0.0000 16.0000 80.0000 76.0000
546 546 1 0.0000 144.0000 32.0000 136.0000
547 547 1 0.0000 68.0000 144.0000 28.0000
548 548 1 0.0000 8.0000 132.0000 16.0000
549 549 1 0.0000 68.0000 44.0000 116.0000
550 550 1 0.0000 36.0000 128.0000 116.0000
551 551 1 0.0000 124.0000 32.0000 68.0000
552 552 1 0.0000 108.0000 136.0000 32.0000
553 553 1 0.0000 64.0000 100.0000 36.0000
554 554 1 0.0000 4.0000 16.0000 80.0000
555 555 1 0.0000 64.0000 76.0000 64.0000
556 556 1 0.0000 4.0000 56.0000 20.0000
557 557 1 0.0000 36.0000 36.0000 48.0000
558 558 1 0.0000 44.0000 112.0000 52.0000
559 559 1 0.0000 120.0000 120.0000 72.0000
560 560 1 0.0000 36.0000 72.0000 32.0000
561 561 1 0.0000 104.0000 72.0000 24.0000
562 562 1 0.0000 20.0000 104.0000 120.0000
563 563 1 0.0000 108.0000 12.0000 68.0000
564 564 1 0.0000 64.0000 52.0000 8.0000
565 565 1 0.0000 136.0000 0.0000 92.0000
566 566 1 0.0000 60.0000 100.0000 52.0000
567 567 1 0.0000 60.0000 92.0000 136.0000
568 568 1 0.0000 56.0000 16.0000 4.0000
569 569 1 0.0000 68.0000 48.0000 120.0000
570 570 1 0.0000 112.0000 84.0000 140.0000
571 571 1 0.0000 24.0000 56.0000 84.0000
572 572 1 0.0000 88.0000 36.0000 20.0000
573 573 1 0.0000 108.0000 72.0000 144.0000
574 574 1 0.0000 80.0000 52.0000 88.0000
575 575 1 0.0000 56.0000 140.0000 0.0000
576 576 1 0.0000 108.0000 4.0000 68.0000
577 577 1 0.0000 64.0000 88.0000 128.0000
578 578 1 0.0000 112.0000 80.0000 64.0000
579 579 1 0.0000 0.0000 28.0000 48.0000
580 580 1 0.0000 56.0000 8.0000 124.0000
581 581 1 0.0000 48.0000 112.0000 56.0000
582 582 1 0.0000 24.0000 136.0000 76.0000
583 583 1 0.0000 128.0000 20.0000 96.0000
584 584 1 0.0000 24.0000 80.0000 64.0000
585 585 1 0.0000 8.0000 56.0000 60.0000
586 586 1 0.0000 100.0000 32.0000 32.0000
587 587 1 0.0000 140.0000 140.0000 52.0000
588 588 1 0.0000 88.0000 56.0000 76.0000
589 589 1 0.0000 48.0000 68.0000 56.0000
590 590 1 0.0000 48.0000 80.0000 80.0000
591 591 1 0.0000 56.0000 100.0000 112.0000
592 592 1 0.0000 92.0000 128.0000 76.0000
593 593 1 0.0000 4.0000 136.0000 20.0000
594 594 1 0.0000 16.0000 84.0000 64.0000
595 595 1 0.0000 48.0000 64.0000 144.0000
596 596 1 0.0000 116.0000 12.0000 100.0000
597 597 1 0.0000 124.0000 88.0000 8.0000
598 598 1 0.0000 136.0000 0.0000 0.0000
599 599 1 0.0000 48.0000 48.0000 84.0000
600 600 1 0.0000 128.0000 120.0000 100.0000
601 601 1 0.0000 4.0000 76.0000 36.0000
602 602 1 0.0000 84.0000 32.0000 4.0000
603 603 1 0.0000 112.0000 92.0000 64.0000
604 604 1 0.0000 80.0000 132.0000 136.0000
605 605 1 0.0000 84.0000 36.0000 84.0000
606 606 1 0.0000 132.0000 84.0000 52.0000
607 607 1 0.0000 24.0000 44.0000 20.0000
608 608 1 0.0000 80.0000 144.0000 44.0000
609 609 1 0.0000 32.0000 56.0000 12.0000
610 610 1 0.0000 44.0000 60.0000 136.0000
611 611 1 0.0000 8.0000 92.0000 140.0000
612 612 1 0.0000 4.0000 24.0000 88.0000
613 613 1 0.0000 144.0000 120.0000 16.0000
614 614 1 0.0000 108.0000 60.0000 124.0000
615 615 1 0.0000 136.0000 48.0000 60.0000
616 616 1 0.0000 104.0000 84.0000 136.0000
617 617 1 0.0000 56.0000 124.0000 72.0000
618 618 1 0.0000 8.0000 0.0000 72.0000
619 619 1 0.0000 32.0000 64.0000 48.0000
620 620 1 0.0000 40.0000 104.0000 36.0000
621 621 1 0.0000 72.0000 52.0000 72.0000
622 622 1 0.0000 132.0000 72.0000 0.0000
623 623 1 0.0000 116.0000 40.0000 112.0000
624 624 1 0.0000 132.0000 120.0000 48.0000
625 625 1 0.0000 0.0000 100.0000 24.0000
626 626 1 0.0000 132.0000 132.0000 40.0000
627 627 1 0.0000 144.0000 16.0000 52.0000
628 628 1 0.0000 12.0000 52.0000 128.0000
629 629 1 0.0000 132.0000 24.0000 24.0000
630 630 1 0.0000 140.0000 40.0000 36.0000
631 631 1 0.0000 120.0000 0.0000 112.0000
632 632 1 0.0000 108.0000 100.0000 132.0000
633 633 1 0.0000 8.0000 24.0000 84.0000
634 634 1 0.0000 40.0000 60.0000 144.0000
635 635 1 0.0000 48.0000 100.0000 92.0000
636 636 1 0.0000 68.0000 28.0000 28.0000
637 637 1 0.0000 132.0000 4.0000 100.0000
638 638 1 0.0000 112.0000 20.0000 100.0000
639 639 1 0.0000 104.0000 128.0000 104.0000
640 640 1 0.0000 96.0000 92.0000 32.0000
641 641 1 0.0000 4.0000 128.0000 80.0000
642 642 1 0.0000 132.0000 52.0000 16.0000
643 643 1 0.0000 12.0000 120.0000 64.0000
644 644 1 0.0000 36.0000 144.0000 28.0000
645 645 1 0.0000 88.0000 52.0000 8.0000
646 646 1 0.0000 68.0000 108.0000 132.0000
647 647 1 0.0000 104.0000 20.0000 0.0000
648 648 1 0.0000 68.0000 100.0000 68.0000
649 649 1 0.0000 4.0000 16.0000 8.0000
650 650 1 0.0000 36.0000 52.0000 60.0000
651 651 1 0.0000 48.0000 92.0000 68.0000
652 652 1 0.0000 4.0000 8.0000 136.0000
653 653 1 0.0000 144.0000 120.0000 68.0000
654 654 1 0.0000 144.0000 100.0000 24.0000
655 655 1 0.0000 116.0000 68.0000 140.0000
656 656 1 0.0000 48.0000 52.0000 124.0000
657 657 1 0.0000 112.0000 140.0000 28.0000
658 658 1 0.0000 32.0000 80.0000 28.0000
659 659 1 0.0000 124.0000 96.0000 8.0000
660 660 1 0.0000 128.0000 48.0000 48.0000
661 661 1 0.0000 24.0000 128.0000 44.0000
662 662 1 0.0000 116.0000 108.0000 40.0000
663 663 1 0.0000 36.0000 100.0000 52.0000
664 664 1 0.0000 112.0000 124.0000 12.0000
665 665 1 0.0000 20.0000 68.0000 8.0000
666 666 1 0.0000 68.0000 52.0000 40.0000
667 667 1 0.0000 4.0000 48.0000 80.0000
668 668 1 0.0000 84.0000 84.0000 20.0000
669 669 1 0.0000 56.0000 88.0000 72.0000
670 670 1 0.0000 76.0000 60.0000 96.0000
671 671 1 0.0000 44.0000 120.0000 24.0000
672 672 1 0.0000 72.0000 56.0000 16.0000
673 673 1 0.0000 36.0000 88.0000 104.0000
674 674 1 0.0000 108.0000 64.0000 128.0000
675 675 1 0.0000 60.0000 12.0000 60.0000
676 676 1 0.0000 80.0000 124.0000 100.0000
677 677 1 0.0000 20.0000 124.0000 88.0000
678 678 1 0.0000 40.0000 12.0000 40.0000
679 679 1 0.0000 12.0000 8.0000 104.0000
680 680 1 0.0000 128.0000 48.0000 96.0000
681 681 1 0.0000 144.0000 116.0000 20.0000
682 682 1 0.0000 64.0000 104.0000 20.0000
683 683 1 0.0000 116.0000 16.0000 104.0000
684 684 1 0.0000 96.0000 44.0000 88.0000
685 685 1 0.0000 28.0000 12.0000 112.0000
686 686 1 0.0000 0.0000 80.0000 104.0000
687 687 1 0.0000 108.0000 0.0000 108.0000
688 688 1 0.0000 52.0000 0.0000 40.0000
689 689 1 0.0000 68.0000 96.0000 64.0000
690 690 1 0.0000 120.0000 84.0000 108.0000
691 691 1 0.0000 28.0000 28.0000 140.0000
692 692 1 0.0000 32.0000 48.0000 28.0000
693 693 1 0.0000 104.0000 52.0000 20.0000
694 694 1 0.0000 52.0000 112.0000 60.0000
695 695 1 0.0000 84.0000 124.0000 92.0000
696 696 1 0.0000 144.0000 88.0000 132.0000
697 697 1 0.0000 68.0000 60.0000 64.0000
698 698 1 0.0000 72.0000 144.0000 108.0000
699 699 1 0.0000 20.0000 32.0000 64.0000
700 700 1 0.0000 44.0000 4.0000 40.0000
701 701 1 0.0000 80.0000 32.0000 92.0000
702 702 1 0.0000 136.0000 128.0000 100.0000
703 703 1 0.0000 112.0000 100.0000 120.0000
704 704 1 0.0000 12.0000 0.0000 76.0000
705 705 1 0.0000 120.0000 120.0000 80.0000
706 706 1 0.0000 8.0000 128.0000 36.0000
707 707 1 0.0000 32.0000 72.0000 136.0000
708 708 1 0.0000 84.0000 56.0000 48.0000
709 709 1 0.0000 104.0000 12.0000 104.0000
710 710 1 0.0000 4.0000 60.0000 40.0000
711 711 1 0.0000 32.0000 140.0000 92.0000
712 712 1 0.0000 12.0000 76.0000 56.0000
713 713 1 0.0000 68.0000 104.0000 44.0000
714 714 1 0.0000 104.0000 116.0000 116.0000
715 715 1 0.0000 72.0000 68.0000 16.0000
716 716 1 0.0000 128.0000 120.0000 128.0000