
thermo 50000
thermo_style custom step temp f_7 f_8
WARNING: New thermo_style command, previous thermo_modify settings will be lost (../output.cpp:705)
thermo_modify flush yes

run       400000000
WARNING: Inconsistent image flags (../domain.cpp:782)
Per MPI rank memory allocation (min/avg/max) = 9.193 | 9.514 | 9.57 Mbytes
Step Temp f_7 f_8
 2100482    280.33419           -0           -0
 2150000    268.12876   -59.186057    41.791032
 2200000    284.03535   -87.260068    65.325541 
 2250000    305.80405   -148.79974    129.82085 
 2300000    261.15493   -152.59113    155.81252 
 2350000    267.96775   -187.31984    187.76611 
 2400000    298.94297   -224.53758    214.84943 
 2450000    260.23321   -277.06727    273.16688 
 2500000    283.01382   -317.67319    306.33095 
 2550000    237.68101   -372.25579    388.53167 
 2600000    269.58202   -403.80337    392.20911 
 2650000    270.80827    -437.2928    426.89515 
 2700000    318.56521   -443.07024     415.2952 
 2750000    287.31648   -421.76472    408.65129 
 2800000     274.1412   -468.58202    455.54988 
 2850000    270.22053   -479.06573    477.33045 
 2900000    255.30179   -506.43811    494.82965 
 2950000    249.83404   -551.94907    556.06663 
 3000000    266.65605   -571.20509    559.30684 
 3050000    271.16206   -647.00996    637.10879 
 3100000    199.55637   -640.23956    650.50926 
 3150000    335.17584   -679.17132    654.25795 
 3200000    283.29234   -740.21825    731.78242 
 3250000     281.1031   -752.84492    743.93514 
 3300000    277.17299   -779.04104    784.95725 
 3350000    276.13882   -833.03262    826.19131 
 3400000    232.81902   -896.35905    908.57597 
 3450000    284.30552   -911.13741    907.62462 
 3500000    262.15423   -934.08346    930.38823 
 3550000     275.5064   -985.59766    988.10446 
 3600000    314.21574   -1040.2705    1022.0217 
 3650000    273.95958   -1072.8876    1061.0641 
 3700000    291.44028   -1084.6001    1070.5719 
 3750000    278.83593    -1130.434    1119.4974 
 3800000    264.86215   -1182.0719    1175.0749 
 3850000    265.35085   -1226.1584     1233.996 
 3900000    278.80258    -1249.233    1250.3325 
 3950000    252.15609   -1298.5031    1283.6199 
 4000000    229.27179   -1358.0012    1371.7024 
 4050000    252.89363   -1410.5265    1414.9325 
 4100000    275.92682   -1493.5283    1470.8948 
 4150000    300.86083   -1508.2589    1498.9881 
 4200000    280.76678   -1577.8422    1573.0361 
 4250000     276.5965   -1586.0458     1575.501 
 4300000    299.43849   -1620.4292    1597.4111 
 4350000    288.64653   -1631.7205    1621.9608 
 4400000    287.00656   -1663.2843    1646.2683 
 4450000      335.999   -1696.5281    1676.8211 
 4500000    275.23229   -1771.5173    1750.2576 
 4550000    254.89729   -1834.4836    1827.7119 
 4600000    288.06986   -1879.1317    1868.5919 
 4650000    322.57841   -1929.9673    1915.2977 
 4700000    248.10361   -1948.0659    1945.7056 
 4750000    279.22599   -1979.0744    1976.7591 
 4800000    294.51791   -2058.7914    2045.3317 
 4850000    256.55993   -2078.3384    2083.3076 
 4900000    254.77307    -2104.962    2107.0809 
 4950000    247.82277   -2147.6348    2150.4049 
 5000000     269.2953    -2174.749    2170.5943 
 5050000    280.68624   -2218.1853    2207.5947 
 5100000     266.8421   -2260.7288    2264.4869 
 5150000     277.8851    -2305.586    2310.9372 
 5200000     260.1117   -2311.3553    2307.5254 
 5250000    275.48739   -2345.2531    2330.3331 
 5300000    286.23189   -2395.9027    2385.8595 
 5350000    287.75995   -2424.3565    2420.3969 
 5400000    245.79619   -2463.0321    2466.5893 
 5450000    265.90899   -2511.9849    2506.4984 
 5500000    285.60884   -2596.6889    2584.3639 
 5550000    265.70403   -2620.5371    2619.2017 
 5600000    252.29093   -2672.8057    2660.7359 
 5650000    256.04461    -2705.153    2689.7366 
 5700000    297.30532   -2694.3162    2697.7153 
 5750000    304.25629    -2715.356    2711.8089 
 5800000    291.62128   -2750.7957     2733.997 
 5850000    268.37478   -2808.8718    2784.1786 
 5900000    269.46098   -2857.1844    2845.7671 
 5950000    277.97914   -2932.8867    2918.2968 
 6000000    322.58877    -2934.756    2917.0803 
 6050000    267.49316   -2962.0787    2960.1764 
 6100000    302.45302   -3038.1776     3015.733 
 6150000    254.63294   -3064.2542    3076.2262 
 6200000    247.83257   -3085.6195    3085.6751 
 6250000    276.76014   -3134.0358     3124.783 
 6300000     337.0592     -3166.65     3147.077 
 6350000    289.44176    -3176.816    3163.8916 
 6400000    337.76248   -3201.5898    3164.9225 
 6450000    283.96104    -3211.763     3197.028 
 6500000    282.31406   -3248.9316    3246.1258 
 6550000    257.35567   -3301.5473    3301.2531 
 6600000    277.28993   -3334.3691    3322.5004 
 6650000    283.84288   -3363.7379    3335.4119 
 6700000    324.68507   -3425.2777    3399.0093 
 6750000    279.86873   -3450.6809    3447.0557 
 6800000    229.23875   -3503.3683     3509.259 
 6850000    293.11338   -3567.0209    3554.2482 
 6900000     281.3263   -3621.9652    3613.6163 
 6950000    272.92729   -3668.8269    3667.7281 
 7000000    263.70886   -3706.7258    3697.5207 
 7050000    252.34409   -3748.8302    3744.9254 
 7100000    269.64507   -3779.9069    3785.2071 
 7150000    265.04001   -3793.8386    3790.1106 
 7200000     269.4396   -3825.5115     3835.005 
 7250000    257.03893   -3876.4313    3876.0301 
 7300000    271.60819   -3910.1453    3895.3375 
 7350000    273.17067   -3919.5505    3920.4838 
 7400000    251.64182    -3934.458    3943.4995 
 7450000    277.19419   -3973.8017    3983.5388 
 7500000    258.26907   -4006.5024    4008.1234 
 7550000    259.12637   -4019.0482    4020.5566 
 7600000    314.58719   -4063.1113    4040.6171 
 7650000    314.76256   -4098.9648    4080.1609 
 7700000    265.91679   -4115.5529    4115.3071 
 7750000    248.77312   -4197.4637    4204.9747 
 7800000    299.56241   -4256.8548    4248.8214 
 7850000     317.5989   -4296.1009    4268.8964 
 7900000    288.59677    -4345.077    4335.7118 
 7950000    267.00559   -4367.3416    4358.7622 
 8000000    258.91364   -4447.6122    4441.3041 
 8050000    300.78962    -4457.002    4441.0171 
 8100000    242.00444   -4498.0632    4502.2224 
 8150000    244.74331   -4535.0539    4539.8088 
 8200000    292.57589   -4566.2385    4563.1605 
 8250000    261.18727   -4620.6435    4613.5622 
 8300000    304.17603   -4686.8798    4663.5925 
 8350000    267.41341   -4695.7253    4700.9842 
 8400000    272.09532    -4726.477    4725.2393 
 8450000    259.83919   -4788.9562    4784.3929 
 8500000    316.86358   -4826.9739    4806.0091 
 8550000    292.80651   -4853.0916    4847.0168 
 8600000    257.57329   -4928.8439    4914.8113 
 8650000    286.72668   -4951.1805    4936.8615 
 8700000    261.65711    -4993.377    4985.2954 
 8750000    251.34943   -5043.0682    5047.3344 
 8800000    282.24145    -5133.621    5116.7606 
 8850000    309.55192   -5178.3715     5153.511 
 8900000    292.34004   -5219.9019    5200.3552 
 8950000    278.45085   -5246.9146    5237.7395 
 9000000    262.78362   -5286.0236    5287.9099 
 9050000    260.40373   -5338.9968     5333.451 
 9100000    255.02088   -5359.5478    5368.8419 
 9150000    280.12624   -5391.4722    5390.8093 
 9200000    248.97043   -5447.2937    5439.9709 
 9250000    272.14846   -5474.0559    5468.3491 
 9300000    345.26799    -5555.695    5529.6719 
 9350000     244.6679   -5543.6646    5544.7424 
 9400000    292.16855   -5617.7323     5603.029 
 9450000    330.10639   -5652.9769    5625.9346 
 9500000    244.63264   -5671.1495    5669.5539 
 9550000    253.54116   -5706.6622    5710.4279 
 9600000    246.23113   -5768.5739    5765.2636 
 9650000    275.77131   -5803.0688    5789.9424 
 9700000    254.94947    -5831.145    5834.4462 
 9750000    249.24569   -5857.0834    5853.5983 
 9800000    240.05628   -5921.5407    5922.5558 
 9850000    265.56124   -5967.5949    5963.1721 
 9900000    268.39256   -5998.1159    5994.4619 
 9950000    269.47027   -6043.1847    6032.6188 
10000000    266.10605   -6067.8269    6061.9164 
10050000    283.15571   -6092.2916    6076.4819 
10100000    273.73321   -6169.7656    6170.0508 
10150000    240.83274    -6210.459    6215.3012 
10200000    262.08654   -6239.5995    6237.4527 
10250000    282.25123   -6266.8699    6262.3019 
10300000    256.33153   -6320.1056    6320.4012 
10350000    269.23442   -6377.4977    6374.3889 
10400000    258.23921   -6406.4125    6404.9606 
10450000    241.15288   -6452.6167    6453.5917 
10500000    273.62313   -6476.7249    6479.4347 
10550000    277.94407   -6487.0065     6485.955 
10600000    255.71266   -6562.0234    6551.3993 
10650000    301.53343   -6607.4314    6606.4066 
10700000    274.71811   -6617.5014    6605.1065 
10750000    240.85139   -6662.1164    6668.7292 
10800000    282.66788   -6674.3776    6665.8933 
10850000    325.42884   -6712.6958    6693.8219 
10900000     293.8137   -6722.0829    6716.0619 
10950000    257.83379   -6741.0149    6743.0607 
11000000    308.74274   -6779.2441    6768.4271 
11050000    319.88315   -6772.1378    6748.6446 
11100000    300.73141   -6811.7557    6797.1862 
11150000    286.56043   -6813.6484    6801.3057 
11200000    264.51997   -6889.3639    6888.3391 
11250000    275.28388   -6944.9299    6936.1209 
11300000    279.20994   -6996.6376    6997.4534 
11350000     260.0603   -7069.5769    7056.4937 
11400000    273.17919   -7128.6984    7123.5085 
11450000    290.85648   -7165.5462    7161.4972 
11500000    241.90727   -7187.2672    7188.9478 
11550000    257.73284     -7229.38    7216.4956 
11600000    297.49655   -7252.8464    7244.5149 
11650000    306.73923   -7291.8326    7276.1464 
11700000    280.71383   -7323.5799    7315.9095 
11750000    283.16456   -7376.9637    7361.5815 
11800000    242.93211   -7416.6421    7429.1612 
11850000     238.7447   -7448.5377    7450.0882 
11900000    260.38385   -7481.8864    7485.6222 
11950000    294.83591   -7501.0301    7485.3544 
12000000    282.06411    -7549.516    7539.3534 
12050000    283.72545   -7602.4344    7591.0271 
12100000    323.43404   -7648.0678    7628.5288 
12150000    249.06062   -7684.2214    7688.7506 
12200000    270.63288    -7712.896    7710.2899 
12250000    271.60035   -7727.4222    7719.9749 
12300000    266.11437   -7784.5261    7769.0014 
12350000    222.34187   -7801.2251     7806.838 
12400000    255.43569   -7824.9982    7808.4558 
12450000    305.16433   -7885.6133    7872.8853 
12500000    247.92343   -7923.8902    7921.8973 
12550000     274.8042   -7949.6934    7948.8512 
12600000    305.00005   -8036.9244    8015.2872 
12650000    273.54953   -8084.1461    8074.1346 
12700000    281.41364    -8153.824    8151.5659 
12750000    263.16413   -8173.1216    8167.7243 
12800000     249.5761    -8206.226    8212.8629 
12850000    297.24353   -8265.4189    8246.9519 
12900000    277.20009   -8345.1106    8329.6087 
12950000    246.77154   -8358.5885    8365.3527 
13000000    295.60695   -8400.2676    8381.8751 
13050000    247.33933   -8449.8939    8453.6951 
13100000    320.18919   -8489.3445    8462.1789 
13150000    273.50252   -8547.9327    8534.2033 
13200000    286.11293   -8584.5735     8584.268 
13250000    244.91399   -8611.4658    8610.2408 
13300000    303.98747   -8686.5061    8665.3273 
13350000     239.2691   -8708.7045    8717.2474 
13400000    245.39323   -8759.7221    8766.2593 
13450000    267.58409   -8831.6925    8839.3332 
13500000    310.26932   -8886.3995    8878.5559 
13550000    262.70467   -8963.7549    8965.3543 
13600000    297.37046   -9066.2324    9057.3497 
13650000    299.60009   -9103.3539    9093.2022 
13700000    245.47225   -9164.2516    9157.9478 
13750000    274.28447   -9179.8799    9170.7486 
13800000    253.47849   -9204.5735    9200.4903 
13850000    268.49185   -9261.7385    9252.4532 
13900000    262.48981   -9299.4072    9291.8545 
13950000     222.9022   -9342.0596    9333.7135 
14000000    293.07255   -9375.7099    9360.5872 
14050000    295.99427   -9437.4391    9427.8435 
14100000    215.27805   -9481.8878    9492.0397 
14150000    265.67744   -9552.4546    9552.9282 
14200000    283.44568   -9599.7902    9587.6863 
14250000    255.30478   -9688.2007    9661.1742 
14300000    266.82837   -9731.8812    9730.6975 
14350000    265.77192    -9742.077    9744.1519 
14400000    255.76621   -9768.9333     9774.147 
14450000    256.19867    -9767.264     9768.382 
14500000    278.83187   -9799.5781    9791.0911 
14550000    225.40394   -9842.7941     9847.033 
14600000    267.54141   -9903.2199    9907.3126 
14650000    263.15516   -9981.7741     9977.446 
14700000    256.86988   -9997.5474    9998.9582 
14750000    267.45938   -10051.483    10048.745 
14800000    248.49972   -10100.597    10092.274 
14850000    291.36211   -10114.869    10101.503 
14900000    300.44994   -10133.566    10123.412 
14950000    275.04294   -10168.603    10163.058 
15000000    282.36097    -10225.78    10207.038 
15050000    271.96208   -10250.619    10248.563 
15100000    309.25988   -10283.112    10265.723 
15150000    274.81331   -10301.513    10300.678 
15200000    274.55976   -10390.033    10387.727 
15250000    287.77199   -10455.294    10452.446 
15300000     284.3954    -10503.63    10491.249 
15350000    270.55747   -10533.172    10523.178 
15400000      263.575   -10576.847    10577.256 
15450000    277.42313   -10629.552    10632.887 
15500000    273.60609   -10662.241    10650.693 
15550000    252.78163   -10723.807    10711.081 
15600000    281.17756    -10749.14    10746.593 
15650000    300.65759   -10789.695    10778.306 
15700000    282.26189   -10835.361     10835.93 
15750000     261.3657   -10869.961    10852.555 
15800000    277.85894   -10871.953    10861.646 
15850000    269.47706   -10919.528    10919.887 
15900000    253.48574   -10967.904    10963.773 
15950000    303.31392    -10999.19    10974.857 
16000000    261.37263   -11057.743    11056.426 
16050000    271.76194   -11087.693    11069.393 
16100000    315.60846   -11146.486    11123.054 
16150000    255.97168   -11135.104    11139.564 
16200000    301.92102   -11173.998    11160.477 
16250000    254.77345   -11215.611    11216.826 
16300000    268.55465   -11281.144    11272.134 
16350000    256.78552   -11299.914    11295.999 
16400000    274.33328    -11360.89    11344.808 
16450000    285.59524   -11413.926    11407.513 
16500000    278.76883   -11446.832    11426.788 
16550000    302.38695   -11493.078    11475.049 
16600000    270.21563   -11522.626    11511.927 
16650000    282.61229   -11543.734     11539.99 
16700000    271.52981   -11544.216    11533.954 
16750000    282.46295   -11571.842    11569.716 
16800000    254.03436    -11577.05    11577.411 
16850000    293.73661   -11601.536    11578.166 
16900000    253.34759   -11645.559    11637.045 
16950000    247.59717   -11674.589    11667.231 
17000000    306.07468   -11739.195    11722.711 
17050000    266.03764   -11726.841    11725.046 
17100000    287.10588   -11745.706    11741.462 
17150000    297.08346   -11828.894    11818.598 
17200000    265.66045   -11837.263    11826.841 
17250000    272.70493   -11862.139    11848.673 
17300000    264.76001   -11918.037    11917.443 
17350000    284.43432   -11979.563    11967.439 
17400000    256.09005   -12032.742    12038.719 
17450000    268.13668    -12057.74    12042.606 
17500000    271.22327   -12085.652    12077.681 
17550000    313.97354   -12113.207    12084.102 
17600000    264.45376   -12111.525    12103.622 
17650000    260.11847   -12203.327    12194.843 
17700000    275.89474    -12234.16    12222.829 
17750000    253.01527   -12281.496    12268.949 
17800000    226.01837    -12294.59    12304.056 
17850000    223.80978   -12328.996    12333.048 
17900000    276.42666    -12368.24    12360.556 
17950000    236.43037   -12402.636    12401.617 
18000000    271.90398   -12454.633    12455.449 
18050000     276.7187   -12485.793    12476.507 
18100000    243.59239   -12509.845    12511.101 
18150000    249.19911   -12565.662    12579.472 
18200000    311.89174   -12633.512    12609.964 
18250000    257.56853   -12689.739    12693.013 
18300000    253.83489   -12723.201    12714.279 
18350000    241.45238    -12786.84    12786.597 
18400000    287.27969   -12781.662    12780.235 
18450000    273.48398   -12854.702    12841.781 
18500000    253.25055   -12853.434    12864.487 
18550000    262.43846   -12933.325    12924.548 
18600000    271.42161    -12969.78    12954.221 
18650000    264.64011   -13028.764    13026.673 
18700000    257.10424   -13062.125    13050.795 
18750000    287.23137   -13086.269    13078.925 
18800000    268.47788    -13114.88    13118.443 
18850000    294.71995   -13143.526    13125.913 
18900000    268.64726   -13145.664     13147.13 
18950000     297.2819   -13177.251    13162.502 
19000000    287.29108   -13208.147    13207.311 
19050000    279.36844   -13221.283     13205.79 
19100000    253.74238   -13233.928    13240.745 
19150000    283.41159   -13299.169    13285.144 
19200000    294.21187   -13309.546    13287.611 
19250000    266.03507   -13366.171    13352.261 
19300000    232.20749   -13423.205    13417.011 
19350000    239.88449   -13460.182    13471.161 
19400000    252.30966   -13493.217    13494.462 
19450000    270.92083   -13505.021    13502.379 
19500000    284.21559   -13547.894    13539.781 
19550000    276.91815   -13569.692    13557.863 
19600000    277.87488     -13588.5    13578.336 
19650000    278.95474   -13620.115    13606.608 
19700000    241.41098   -13667.909    13679.954 
19750000    322.04277   -13713.404    13692.238 
19800000    269.42258   -13751.155    13745.297 
19850000    304.52973    -13799.39    13780.197 
19900000    297.09899   -13809.844    13800.467 
19950000    283.91347   -13850.576    13841.305 
20000000    296.72813   -13854.632    13845.122 
20050000    315.70217   -13893.351     13871.04 
20100000    293.97786   -13922.644    13909.443 
20150000    254.97703   -13935.808    13940.573 
20200000    236.27857   -13969.428    13967.741 
20250000    281.85532   -14027.884    14013.837 
20300000     276.1147   -14074.834    14065.631 
20350000    251.24644   -14118.666    14123.203 
20400000    261.71903   -14121.318    14108.464 
20450000    245.77105   -14130.045     14142.49 
20500000    247.22245   -14181.417    14178.876 
20550000     273.4093   -14238.381    14236.364 
20600000    272.97948   -14269.313     14259.21 
20650000    259.57615   -14276.498    14275.401 
20700000    234.60689    -14316.91    14320.387 
20750000    292.31877   -14366.268     14353.46 
20800000    280.45518   -14360.035    14364.274 
20850000    259.14922   -14435.049    14424.129 
20900000    269.83924   -14450.846    14460.562 
20950000    272.98535   -14510.773    14499.783 
21000000     299.4711   -14576.409    14558.018 
21050000    253.52339   -14603.516    14599.667 
21100000    237.08533   -14609.341    14613.929 
21150000    248.52958   -14609.353    14613.368 
21200000    258.31757   -14639.298    14641.542 
21250000    260.01415   -14715.442    14714.901 
21300000    254.88825   -14771.784    14781.265 
21350000    314.78115   -14844.685    14826.673 
21400000    273.47665   -14881.889    14871.469 
21450000    305.02446    -14906.95    14893.876 
21500000    299.08666   -14935.635    14924.744 
21550000    266.34957   -14987.441    14977.566 
21600000    286.86642   -15030.602    15021.295 
21650000    264.74079   -15059.681    15061.099 
21700000    279.30773    -15099.65    15093.127 
21750000    238.08143   -15098.319    15114.242 
21800000    315.29324   -15157.648    15132.397 
21850000    315.16987    -15157.04     15140.23 
21900000    300.99959   -15190.497     15180.06 
21950000    308.82636   -15252.326    15238.861 
22000000    293.19475   -15309.823    15305.068 
22050000    274.48041   -15385.645    15374.491 
22100000    275.82932   -15444.439    15434.115 
22150000    311.34921   -15516.712    15506.199 
22200000    263.69251   -15535.711    15537.215 
22250000    280.50179   -15623.393    15610.311 
22300000    312.78498   -15695.286    15681.626 
22350000    291.05028   -15737.562    15724.698 
22400000    283.31438   -15750.238    15752.698 
22450000    242.31021   -15791.946    15786.976 
22500000    257.08539   -15842.382    15835.368 
22550000    235.94786   -15867.486     15870.97 
22600000    286.53676   -15918.471    15906.959 
22650000    254.34194   -15960.544    15957.361 
22700000    296.31949   -16008.137    15988.129 
22750000    276.66575   -16039.139    16038.802 
22800000    282.29019   -16069.288    16056.439 
22850000    297.51398   -16117.204    16106.447 
22900000    234.93028   -16152.054    16158.602 
22950000    301.13169    -16236.79    16215.146 
23000000    275.57178   -16265.488    16259.863 
23050000    265.21851   -16312.817    16323.076 
23100000    265.74473   -16375.742    16371.906 
23150000    308.85679   -16424.453    16396.889 
23200000    311.46276   -16498.199    16467.532 
23250000    245.12562   -16477.967    16484.836 
23300000    271.42156   -16490.715    16480.173 
23350000    284.45414   -16544.676    16532.415 
23400000    280.58143   -16581.247    16569.724 
23450000    294.18049   -16606.406    16600.979 
23500000    307.39174   -16675.735    16652.616 
23550000    295.50635   -16711.911    16710.031 
23600000    251.81634   -16711.885    16711.875 
23650000    282.80435   -16743.965    16740.992 
23700000    266.66458   -16746.325     16751.06 
23750000    311.57677   -16788.191    16763.138 
23800000    290.86484   -16819.757    16809.058 
23850000    327.76688   -16859.877    16850.992 
23900000    263.76576   -16871.801    16879.101 
23950000    224.16007   -16891.852    16900.655 
24000000    281.55057    -16938.33    16936.773 
24050000    238.69795   -16997.902    17009.599 
24100000    306.65148   -17090.636    17063.843 
24150000    267.54084   -17133.313    17131.852 
24200000    263.86831   -17159.817    17157.389 
24250000    295.20203    -17236.87    17206.538 
24300000     264.6455   -17280.317    17276.058 
24350000     262.4649   -17311.744    17318.677 
24400000     268.6098   -17359.323    17344.536 
24450000    284.54216   -17414.765    17402.918 
24500000    303.06215   -17484.772    17471.147 
24550000     245.8228   -17532.174    17539.119 
24600000    231.73345    -17589.12    17599.906 
24650000    294.74371   -17617.691    17604.752 
24700000    303.83046   -17670.636    17659.338 
24750000    262.18028   -17728.811     17720.09 
24800000    267.13512   -17759.115    17758.786 
24850000    248.71382   -17823.552    17810.106 
24900000    246.59914   -17850.052    17850.688 
24950000    293.61925    -17873.91    17865.029 
25000000    279.04108   -17902.365    17889.369 
25050000    300.25679   -17896.704    17889.837 
25100000    280.77325   -17951.038    17935.528 
25150000    270.70355   -17969.335    17971.037 
25200000    284.33569   -18004.823    17989.488 
25250000    228.92176   -18042.255    18037.822 
25300000    286.32754   -18073.045    18061.308 
25350000    244.07858   -18073.655    18087.402 
25400000    246.96695    -18134.51    18139.337 
25450000    284.58168    -18196.23    18192.005 
25500000     260.5716   -18236.424    18234.581 
25550000    267.39357   -18269.041    18269.658 
25600000    267.28672   -18313.939    18316.063 
25650000    316.15563   -18362.612    18347.943 
25700000    257.62999   -18395.763    18389.349 
25750000    252.81273   -18450.208    18449.674 
25800000    290.80252   -18475.482    18460.905 
25850000    284.16039   -18491.424    18480.614 
25900000    242.17439   -18584.436    18581.131 
25950000    283.04507   -18624.608    18612.313 
26000000    232.10428   -18591.758    18589.288 
26050000    285.62852   -18639.306    18626.289 
26100000    246.71374    -18686.59     18689.49 
26150000    261.79627    -18726.37    18716.433 
26200000    300.77107   -18759.164    18754.125 
26250000      289.523   -18790.144    18779.498 
26300000    270.19683   -18808.868    18810.704 
26350000     285.1511   -18794.843    18792.712 
26400000    299.26862   -18806.986     18798.33 
26450000    258.19231   -18877.602    18879.522 
26500000    265.04209   -18903.044    18891.776 
26550000    280.54736   -18957.739    18956.628 
26600000    290.82798   -18981.712    18974.541 
26650000    275.00802    -19013.05    19001.686 
26700000    259.48491   -19064.104    19063.926 
26750000    300.01714   -19095.463     19076.85 
26800000    263.30315   -19120.283    19120.307 
26850000     277.9456   -19166.185    19162.047 
26900000     280.4982   -19198.491    19193.648 
26950000    269.24833   -19208.194    19207.735 
27000000    292.53547   -19267.077    19251.213 
27050000     274.9546   -19285.217    19272.976 
27100000    280.82059   -19325.681    19316.259 
27150000    231.17986   -19349.592    19362.511 
27200000    265.73739   -19405.476    19415.642 
27250000    286.39605   -19462.639    19445.072 
27300000    292.83265    -19489.42    19489.289 
27350000    272.68924    -19579.43    19573.505 
27400000    288.15651   -19630.144    19627.675 
27450000    277.96846   -19663.758    19658.438 
27500000    295.63648   -19739.561    19719.377 
27550000    238.75577   -19718.986    19728.147 
27600000    250.89254   -19716.312     19712.31 
27650000    246.15606   -19747.502    19738.619 
27700000      284.154   -19810.656    19802.746 
27750000    269.30564   -19875.386    19871.466 
27800000    268.48626   -19878.382    19879.131 
27850000    274.87694   -19932.795    19927.137 
27900000    281.09166   -19966.977    19961.736 
27950000     241.8189   -19996.162    20000.443 
28000000    286.25981   -20048.294    20029.659 
28050000    245.33031   -20088.913    20090.136 
28100000    300.55187   -20167.053    20157.223 
28150000    306.64017   -20215.094    20195.645 
28200000     327.3001   -20287.838    20271.445 
28250000    229.29911   -20354.505    20376.682 
28300000    267.78907   -20407.529    20408.343 
28350000    320.67203   -20471.182     20459.34 
28400000    275.84393    -20517.96    20510.316 
28450000    266.59258   -20514.485      20516.8 
28500000    305.91736   -20535.588    20517.082 
28550000     289.4725   -20532.532    20520.384 
28600000    302.63092   -20557.561    20551.687 
28650000    240.66964   -20599.899    20601.328 
28700000    312.35174    -20667.66    20642.684 
28750000    297.76445   -20644.917     20629.84 
28800000    256.00947   -20682.578    20687.342 
28850000    285.14627   -20750.321     20740.72 
28900000    298.35904   -20765.633    20751.089 
28950000    264.73915   -20801.566    20805.164 
29000000    237.46036   -20838.158    20845.462 
29050000    268.69724   -20926.487    20919.131 
29100000    316.35907   -20970.421    20958.689 
29150000    266.12081   -21016.398    21011.183 
29200000    256.40377   -21034.617     21036.24 
29250000    248.20844    -21073.24    21083.743 
29300000    248.15437   -21109.886    21119.083 
29350000    297.99616   -21133.259    21112.184 
29400000    258.63278   -21148.207    21134.701 
29450000    308.62137   -21175.228    21156.452 
29500000    292.09478   -21229.659    21208.389 
29550000    278.39515   -21258.632    21242.236 
29600000    220.68299   -21289.747    21302.359 
29650000    273.91585    -21346.02    21354.567 
29700000     276.9444   -21397.149    21387.283 
29750000    262.41326   -21424.093    21427.819 
29800000    278.18795   -21442.961    21434.108 
29850000    299.08902   -21483.877    21469.671 
29900000      298.664   -21521.748    21505.447 
29950000    272.79668   -21584.701    21580.963 
30000000     284.7536   -21651.654    21645.617 
30050000     266.1272   -21702.371    21695.596 
30100000    232.82854   -21750.255    21748.618 
30150000    276.00187   -21806.251     21802.04 
30200000    259.31609    -21855.45    21857.817 
30250000    285.55307    -21895.72    21888.794 
30300000    261.50561   -21918.494    21904.235 
30350000    286.29185   -21966.915    21955.268 
30400000    257.25135   -21962.552    21974.607 
30450000    262.58097   -22017.369    22004.874 
30500000    305.14522   -22074.835    22056.408 
30550000       239.81   -22098.907    22102.168 
30600000    279.09791   -22128.199    22133.606 
30650000    235.83672   -22154.394    22161.512 
30700000    292.81117   -22237.845    22223.612 
30750000    310.38335   -22275.719    22259.748 
30800000    313.40601   -22295.487    22279.544 
30850000    283.04927   -22303.614    22297.433 
30900000    259.35102   -22353.307    22357.509 
30950000    274.65799   -22392.638     22400.58 
31000000    266.64828   -22409.906    22406.064 
31050000     272.9811    -22460.68    22448.794 
31100000    247.57355   -22440.105    22443.811 
31150000    287.50588   -22492.726    22479.354 
31200000    258.54946   -22498.788    22503.207 
31250000    288.41211   -22522.142    22511.311 
31300000    270.19811   -22535.886    22538.012 
31350000    260.40859    -22594.17    22583.041 
31400000    281.79823   -22645.538    22632.762 
31450000    269.45951   -22665.359    22666.786 
31500000    288.24319   -22683.498    22686.326 
31550000    242.28953   -22722.902    22719.854 
31600000     264.3122   -22772.252    22763.493 
31650000     280.5682   -22851.061    22845.608 
31700000    287.40441   -22862.189    22849.813 
31750000    357.97826   -22897.922    22865.363 
31800000     296.2357   -22917.525    22916.741 
31850000     279.3606   -22978.099    22960.832 
31900000    269.07859   -22971.441     22978.67 
31950000     284.1827   -23058.585    23054.764 
32000000    281.57385   -23108.297    23094.292 
32050000    281.22364   -23133.278    23133.165 
32100000    302.40368   -23162.955     23149.68 
32150000    290.16518   -23204.277     23200.07 
32200000    252.10537   -23248.001    23250.747 
32250000    295.57157   -23300.091    23294.056 
32300000    295.66027   -23313.045    23301.166 
32350000    235.92588   -23349.035     23355.04 
32400000     292.4701   -23381.171    23373.948 
32450000    276.91025   -23474.675    23452.859 
32500000    281.09491   -23489.629    23483.223 
32550000     278.7506   -23492.772    23491.973 
32600000    260.05705   -23509.609    23513.259 
32650000    265.49909   -23515.284    23521.088 
32700000    274.94638   -23567.592    23578.643 
32750000    265.18048   -23631.701    23644.102 
32800000    255.17371   -23661.752     23668.93 
32850000    279.16587   -23721.958    23723.842 
32900000    282.25226   -23788.628    23784.865 
32950000      253.918   -23847.689    23839.806 
33000000    283.63721   -23890.738    23883.526 
33050000    292.62438   -23912.367    23899.571 
33100000    256.51375   -23937.888    23931.298 
33150000    234.13454   -23948.901    23971.709 
33200000    269.16647   -24009.905    24004.135 
33250000    286.08501   -24084.931    24081.828 
33300000    280.03264   -24106.491    24099.302 
33350000    258.02305    -24125.91    24122.617 
33400000    226.12839    -24135.98    24132.613 
33450000    271.63973   -24158.762    24160.169 
33500000    254.12291   -24191.846    24195.384 
33550000    282.04563   -24249.167    24247.287 
33600000    286.47297   -24291.489    24282.147 
33650000    259.77355   -24255.787    24263.194 
33700000    312.37406     -24334.5    24320.612 
33750000    248.98434   -24351.752    24361.174 
33800000    276.58056   -24407.944    24406.217 
33850000    308.42763   -24474.498    24467.464 
33900000    339.69991   -24522.122    24490.998 
33950000     273.1194   -24531.394    24531.153 
34000000    238.89548   -24575.234    24585.653 
34050000    291.44247   -24618.954     24602.48 
34100000    305.57742   -24653.927    24639.666 
34150000    223.38665   -24677.081    24682.396 
34200000    299.84249    -24718.03    24708.721 
34250000    268.23404   -24769.609    24761.746 
34300000    257.74702   -24797.722    24801.786 
34350000    230.70087    -24839.81    24846.869 
34400000    283.08791    -24896.64    24882.303 
34450000    250.11507   -24940.983    24940.446 
34500000    279.89368   -25001.209    24989.633 
34550000     310.5336   -25023.824    25009.549 
34600000    240.58908   -25065.369    25085.179 
34650000    289.56448   -25133.754    25123.882 
34700000    264.99375   -25149.049    25142.925 
34750000    276.74083   -25204.487    25188.147 
34800000    253.82901   -25243.851    25246.029 
34850000     274.8931   -25308.157    25301.426 
34900000    309.73733    -25307.75    25296.819 
34950000    254.45501   -25313.184    25308.547 
35000000     265.5393    -25351.57    25346.262 
35050000    303.73975   -25399.337    25391.999 
35100000    260.62075   -25447.064    25445.665 
35150000     298.1086   -25449.481    25438.036 
35200000    257.13516   -25505.011    25508.323 
35250000    266.51309   -25530.486    25531.274 
35300000    299.74332     -25545.2    25537.153 
35350000    277.91242   -25594.545    25583.138 
35400000    252.93294   -25616.101    25610.928 
35450000    283.42442    -25640.37    25633.767 
35500000    286.08848   -25649.151    25645.609 
35550000    278.68871   -25679.367    25684.204 
35600000    257.95643   -25738.646    25733.013 
35650000    281.04174   -25823.868    25820.444 
35700000    289.32212   -25878.356    25877.209 
35750000    264.43594   -25945.297     25941.87 
35800000    284.95614   -25966.931    25962.908 
35850000    228.82072   -25996.247    26006.717 
35900000    271.46605   -26068.887    26081.638 
35950000    266.38145   -26102.849     26107.05 
36000000     266.6902   -26142.257    26138.325 
36050000    264.73912   -26195.885    26192.865 
36100000    307.20383   -26198.146    26182.159 
36150000    287.38194   -26214.226    26198.358 
36200000    258.16528   -26207.347    26202.751 
36250000    279.57134   -26262.322    26254.377 
36300000    281.35991   -26306.968    26301.256 
36350000    276.33745   -26342.691    26341.045 
36400000    316.75927   -26396.865    26383.307 
36450000    287.44913   -26454.553    26446.635 
36500000    300.49791   -26491.187    26478.269 
36550000    273.65956   -26499.958    26504.477 
36600000    265.38727   -26525.716    26519.797 
36650000    298.10545   -26571.332    26558.977 
36700000    269.86763   -26560.351    26549.031 
36750000    269.84135   -26640.546    26642.037 
36800000    285.08586   -26678.964    26674.387 
36850000    270.24268   -26722.807    26727.886 
36900000      247.412   -26753.578    26764.922 
36950000    257.59448   -26809.421    26807.314 
37000000     300.3741   -26874.452    26857.166 
37050000    278.06208   -26898.411    26890.222 
37100000    297.41259   -26939.879    26928.667 
37150000     279.0342   -26939.563    26934.779 
37200000     314.4401   -27000.226    26969.637 
37250000    260.83206   -27023.548    27016.915 
37300000    302.30912   -27056.099    27029.713 
37350000    260.52687    -27092.51    27092.546 
37400000    249.60701   -27110.283    27121.582 
37450000    292.72532   -27158.723     27144.69 
37500000    280.43756   -27195.812    27196.338 
37550000    227.20252   -27206.911    27216.631 
37600000    299.54357   -27284.364    27264.854 
37650000    276.31614   -27328.804    27322.378 
37700000    273.55752   -27365.163    27362.909 
37750000    273.68314   -27411.864    27398.256 
37800000    290.44307   -27497.954      27475.8 
37850000    294.52741   -27513.158    27488.352 
37900000    305.45667   -27581.115    27564.917 
37950000    318.62194   -27592.066    27570.296 
38000000    253.71511   -27615.145    27599.609 
38050000     309.4225   -27653.454    27640.393 
38100000    309.66283   -27699.522    27690.689 
38150000    228.00289   -27725.998    27731.909 
38200000    268.70755   -27745.273    27745.182 
38250000    255.93165   -27769.453    27777.659 
38300000    248.23692   -27801.148    27814.599 
38350000    297.60426   -27858.323    27846.175 
38400000    264.20641   -27880.613    27871.501 
38450000     236.5389   -27920.758    27933.122 
38500000    253.77202    -28000.46    28004.791 
38550000    303.72641   -28057.267    28036.667 
38600000    303.96659   -28073.514    28059.699 
38650000    224.57585    -28071.94    28093.231 
38700000    323.93196   -28178.883    28163.271 
38750000    294.06713   -28204.763    28189.502 
38800000    248.58968   -28254.423    28259.093 
38850000    291.33054   -28297.154    28278.137 
38900000    281.55681   -28324.879    28294.005 
38950000    270.08605   -28360.453    28349.922 
39000000     236.1033     -28390.3    28392.185 
39050000    251.36436   -28410.998    28406.557 
39100000    262.56318   -28481.195    28480.265 
39150000    253.98849   -28482.806     28483.57 
39200000    298.38766   -28512.073    28495.186 
39250000    258.37429   -28617.498    28604.943 
39300000    265.57912   -28618.451    28628.555 
39350000    234.72315   -28668.212    28677.678 
39400000    246.21201   -28706.438    28701.955 
39450000    290.89555    -28772.94    28772.991 
39500000    266.56949   -28845.951    28843.237 
39550000    272.30755   -28879.739    28877.963 
39600000    215.57466   -28904.543    28912.641 
39650000    271.88176   -28978.614    28972.427 
39700000    257.63327   -29021.421    29023.215 
39750000    314.27448   -29088.768    29069.667 
39800000    255.10544   -29126.496    29125.684 
39850000    301.68826   -29131.417    29115.773 
39900000    222.93916   -29148.666    29161.744 
39950000     279.7559   -29181.234    29184.672 
40000000     312.4685   -29264.034    29239.868 
40050000    268.15525   -29329.383    29314.213 
40100000    278.78146   -29379.343    29382.041 
40150000    295.04995   -29412.393    29404.551 
40200000    245.58004   -29494.682    29489.404 
40250000    271.52552   -29539.851    29535.848 
40300000    307.20062   -29579.418    29566.033 
40350000    252.89563   -29621.777    29620.099 
40400000    323.89466   -29702.846    29677.516 
40450000    306.97655   -29769.245    29741.892 
40500000    297.61647   -29803.446    29795.392 
40550000    319.31451   -29823.189    29816.101 
40600000    289.57714   -29887.147    29875.908 
40650000    338.18005   -29945.832    29916.346 
40700000     309.1395   -29995.308    29990.936 
40750000    261.81958   -30013.539    30015.665 
40800000    286.36688   -30059.183    30049.614 
40850000    330.92604   -30141.478    30115.085 
40900000    276.81871   -30136.818    30138.738 
40950000    243.23905   -30171.174    30172.116 
41000000    274.82132   -30225.463    30223.934 
41050000    272.04946   -30267.284    30267.661 
41100000    282.10422   -30304.035    30302.469 
41150000    283.23656   -30311.407    30296.967 
41200000     295.7968    -30307.04     30311.89 
41250000    303.49835    -30346.42    30332.401 
41300000     264.4672   -30394.323    30388.338 
41350000    276.51791   -30412.186    30415.733 
41400000    294.86125   -30450.142     30439.57 
41450000    268.89514   -30490.581    30491.429 
41500000    262.59921   -30556.124    30555.403 
41550000    267.44956   -30594.643    30591.433 
41600000    272.28143   -30593.648    30587.815 
41650000     246.1246   -30653.729    30652.757 
41700000    304.78759   -30711.647    30695.372 
41750000     262.3944   -30733.809    30739.321 
41800000    289.28515   -30769.194    30761.465 
41850000    278.74327   -30820.191    30811.698 
41900000    258.93798   -30880.171    30869.966 
41950000    271.88853   -30959.364    30963.125 
42000000    279.25159    -30965.78    30962.393 
42050000    254.20688   -30980.824    30974.187 
42100000    248.81411   -31045.582    31045.875 
42150000    285.21048   -31112.783    31097.902 
42200000    284.38604   -31140.091    31125.106 
42250000    308.23089   -31180.504    31171.619 
42300000    239.89226   -31221.402    31228.815 
42350000    313.98034    -31269.17    31254.445 
42400000    324.39621   -31328.071    31308.663 
42450000    255.54331   -31331.116    31328.744 
42500000    290.44976   -31345.385    31330.306 
42550000    292.62638   -31399.679    31378.185 
42600000    288.32213   -31442.135    31441.402 
42650000    275.59447   -31470.177    31469.036 
42700000    318.17818   -31504.139    31484.789 
42750000    291.85577   -31540.652    31531.227 
42800000    308.73171   -31581.431    31559.007 
42850000    263.70903   -31631.204    31616.653 
42900000    223.70955   -31636.439     31645.34 
42950000    296.97541   -31660.969     31650.33 
43000000    247.54796   -31680.126    31674.797 
43050000    295.09927   -31694.648    31688.472 
43100000    311.08957   -31717.329     31708.01 
43150000     290.6475   -31766.511     31746.95 
43200000    248.67246   -31784.757    31782.993 
43250000    241.00057   -31801.909    31807.748 
43300000    268.14137   -31828.764     31828.06 
43350000    270.99182   -31907.602    31893.262 
43400000    299.55329   -31955.074     31950.02 
43450000    249.31817   -32030.546     32025.72 
43500000    256.01086   -32055.946    32061.908 
43550000     272.0654   -32096.079    32106.974 
43600000    258.67505   -32150.844    32147.076 
43650000    224.78814    -32183.09    32185.835 
43700000    270.00395   -32223.934    32228.472 
43750000    267.36871   -32285.695    32272.881 
43800000    313.28151   -32336.335    32312.166 
43850000    268.09939    -32392.61    32383.201 
43900000    280.89564   -32464.798    32450.124 
43950000    274.00933   -32526.702    32515.243 
44000000    261.82162   -32554.542    32551.379 
44050000    240.98425   -32604.667    32594.758 
44100000    263.98758   -32631.336    32619.617 
44150000    275.60393   -32641.241    32641.023 
44200000    264.52634   -32670.147     32662.82 
44250000    276.56722   -32679.155    32678.926 
44300000    280.20314   -32733.501    32720.247 
44350000    273.76098   -32758.824    32751.284 
44400000    243.11659    -32805.61    32813.803 
44450000    215.27298   -32843.003    32848.414 
44500000    251.01671   -32873.757    32867.166 
44550000    291.18454    -32912.69    32901.057 
44600000    310.35517   -32963.487    32946.691 
44650000    256.43541   -33024.026    33025.829 
44700000    294.58861   -33066.071    33053.372 
44750000     259.1743   -33088.797    33086.432 
44800000    333.63507     -33168.9    33127.662 
44850000    259.01313   -33158.828    33165.087 
44900000    317.31913   -33212.834    33185.641 
44950000    314.48962   -33233.527    33211.665 
45000000    236.01982    -33297.01    33308.303 
45050000    312.05171   -33382.087    33363.663 
45100000    270.69945   -33410.203    33411.309 
45150000    254.31103   -33411.235    33413.083 
45200000    285.73752   -33436.306    33434.933 
45250000    293.25235   -33465.273    33442.829 
45300000    286.58666   -33480.059    33476.574 
45350000    297.72008   -33500.564    33499.574 
45400000    278.93897    -33491.94    33491.676 
45450000    254.76927   -33514.992    33522.766 
45500000    264.27697   -33558.681    33555.037 
45550000    289.76057   -33617.755    33604.789 
45600000    259.60359   -33631.292    33623.988 
45650000    237.30866    -33659.85    33666.931 
45700000    241.54324   -33677.689    33687.438 
45750000    240.64764   -33772.706    33776.328 
45800000    275.80762   -33833.567     33835.49 
45850000    283.50956   -33871.314     33866.78 
45900000    323.56414    -33925.67    33892.435 
45950000    235.82236   -33922.824    33929.859 
46000000    279.57575   -33981.892    33982.061 
46050000    320.53293   -34047.803    34039.202 
46100000     261.5186    -34100.04    34099.873 
46150000    273.09138   -34139.416    34125.892 
46200000    275.65083   -34186.738    34186.606 
46250000    297.67586     -34219.3    34204.893 
46300000    268.73372   -34248.651    34244.409 
46350000    250.81677   -34290.781     34303.17 
46400000    291.67384   -34362.651    34351.503 
46450000    299.96228    -34405.44    34390.094 
46500000    304.45782   -34471.617    34448.043 
46550000    313.20898   -34501.333    34485.845 
46600000     287.7908   -34546.231    34533.631 
46650000    274.20254   -34591.932    34588.665 
46700000    251.05839   -34626.834    34623.629 
46750000    217.71276   -34643.622    34663.623 
46800000    236.46614   -34666.509    34675.377 
46850000    265.27287   -34724.216    34717.275 
46900000    274.10121   -34761.295    34748.806 
46950000    292.40969   -34795.748    34785.617 
47000000    274.19118   -34820.435    34806.088 
47050000    264.07623   -34852.694    34843.576 
47100000    247.70599    -34903.01    34897.063 
47150000    304.71297   -34924.567    34909.344 
47200000    259.92418   -34979.201    34980.199 
47250000    271.15515   -35029.556    35029.208 
47300000    275.80269   -35032.205    35034.343 
47350000    263.39396   -35046.796    35045.035 
47400000    248.94562   -35119.688    35117.414 
47450000    262.98691   -35157.637    35157.103 
47500000    261.62858   -35195.032    35193.553 
47550000    259.30372    -35228.05     35227.96 
47600000    235.48068   -35259.043    35260.651 
47650000    292.14381   -35315.315    35306.473 
47700000    263.08791   -35334.257    35335.149 
47750000    261.42053   -35389.532    35379.791 
47800000    246.11657   -35406.599    35396.486 
47850000    294.13259    -35443.15    35430.116 
47900000    251.08497   -35487.999    35483.896 
47950000    285.98599   -35539.168     35523.68 
48000000    290.97616   -35595.102    35580.405 
48050000    276.74978   -35652.201    35651.205 
48100000    221.80284   -35684.385    35693.383 
48150000    264.11541   -35707.475    35706.594 
48200000    275.65985    -35714.34    35721.677 
48250000    272.77921   -35727.168    35722.166 
48300000    260.05441   -35731.812    35735.394 
48350000    275.78327   -35784.056    35766.459 
48400000    332.22317   -35841.345    35805.036 
48450000    256.45937   -35910.275    35907.768 
48500000    251.01822   -35905.242    35896.759 
48550000    275.04827    -35933.87    35932.498 
48600000    269.57139   -35964.949    35952.942 
48650000    222.71677   -35954.104    35967.559 
48700000    255.65422   -36017.112    35999.952 
48750000     266.1634   -36040.495    36038.285 
48800000    260.37297   -36095.672    36095.105 
48850000    278.51126   -36147.175    36137.675 
48900000     258.6752   -36148.635    36139.428 
48950000    285.57118   -36164.949    36158.524 
49000000    250.68732   -36203.215    36205.736 
49050000    247.64388   -36253.593    36254.641 
49100000    293.19672    -36317.92    36295.772 
49150000    240.49328    -36362.03    36372.943 
49200000    256.74222   -36444.904    36443.443 
49250000    288.59574   -36441.814    36430.232 
49300000    280.95638   -36459.423    36450.279 
49350000    285.17603   -36494.575    36493.079 
49400000    237.82538   -36505.033    36508.178 
49450000    263.84977   -36528.521    36524.041 
49500000    266.83539    -36581.02    36568.152 
49550000    256.18568   -36622.967    36625.723 
49600000    301.53838   -36648.974    36625.023 
49650000    325.32677   -36693.665    36666.095 
49700000     293.3727   -36750.449    36730.691 
49750000    298.16812   -36763.646    36747.305 
49800000    312.86265   -36809.035    36790.198 
49850000    260.21218   -36842.074    36840.298 
49900000    240.69122   -36886.304    36896.236 
49950000    296.11477   -36954.026    36935.976 
50000000     265.3028   -37014.633      37016.8 
50050000    239.78833   -37016.777    37028.916 
50100000    231.73893   -37042.151    37053.471 
50150000    304.60164   -37073.762    37073.932 
50200000    244.90971   -37080.818    37081.808 
50250000    279.63981    -37091.38    37081.807 
50300000    284.74526   -37177.939    37168.951 
50350000    229.76399   -37215.844    37215.082 
50400000     275.2255    -37253.16    37246.035 
50450000    310.54869   -37294.416    37270.507 
50500000    282.67167   -37327.811    37312.052 
50550000    286.28333   -37369.478    37366.144 
50600000    265.84025   -37421.043    37419.134 
50650000    294.13065   -37470.297    37457.699 
50700000    289.03511   -37508.102    37492.603 
50750000    316.08254   -37513.801    37494.902 
50800000    235.46692   -37564.444    37572.081 
50850000    261.31908   -37568.937    37564.303 
50900000     254.4395   -37621.226    37629.779 
50950000     252.4396   -37709.657    37709.743 
51000000    257.33567   -37733.294    37733.074 
51050000    273.08046   -37758.278    37758.381 
51100000    253.99202   -37800.109    37803.544 
51150000    304.77197   -37841.224    37830.147 
51200000    317.51041   -37887.074    37872.689 
51250000    292.18803   -37959.664    37936.385 
51300000    261.96097   -37975.338    37975.008 
51350000     250.3951   -38014.747      38018.3 
51400000    263.31204   -38068.881    38061.538 
51450000    276.05595   -38151.934    38134.457 
51500000    231.03027    -38182.05    38195.914 
51550000    247.91863   -38234.277    38234.111 
51600000    258.49886   -38267.513    38269.664 
51650000    337.34089   -38326.231    38305.833 
51700000     269.1735   -38357.714    38363.735 
51750000    283.05186   -38413.969    38384.898 
51800000    263.13659   -38431.764    38425.013 
51850000    279.31623   -38480.879    38478.636 
51900000    301.15881   -38530.192    38522.242 
51950000     332.4235   -38558.116    38540.864 
52000000    309.48831    -38584.23    38574.093 
52050000    263.55827   -38600.438     38595.01 
52100000    265.46379   -38616.617    38613.408 
52150000    274.78336   -38643.834    38633.332 
52200000    249.62981   -38672.239    38683.753 
52250000    289.39006   -38709.329    38700.576 
52300000    253.77885   -38760.605    38767.518 
52350000    254.45148   -38811.186    38813.141 
52400000    279.30424   -38882.975    38871.702 
52450000    253.32517   -38903.898    38914.702 
52500000    273.15731   -38960.578    38958.531 
52550000    262.47777   -39029.312    39033.428 
52600000    230.58042   -39067.719    39082.522 
52650000    264.71408   -39130.345    39123.678 
52700000    291.18005    -39173.81    39152.299 
52750000    253.20663     -39194.7    39194.726 
52800000    269.46053   -39221.874     39217.01 
52850000    257.08977   -39228.844     39234.53 
52900000    275.12066   -39265.506    39271.566 
52950000    289.51767   -39304.418    39288.022 
53000000    227.50991   -39343.356    39344.602 
53050000    244.11059   -39378.946    39390.987 
53100000    245.48365   -39407.086    39416.933 
53150000    241.93118   -39422.212      39416.3 
53200000    261.91857   -39480.667    39481.696 
53250000    272.06612   -39525.915    39513.422 
53300000    316.03609   -39598.272    39589.386 
53350000     292.0116    -39635.62    39615.414 
53400000    295.27175   -39630.403    39618.636 
53450000    246.22095   -39676.557    39679.971 
53500000    290.60314   -39718.342     39702.82 
53550000    299.85505   -39733.525    39723.558 
53600000    261.34384    -39781.97    39782.926 
53650000    221.46551   -39793.797    39805.057 
53700000    286.21528   -39817.177    39798.545 
53750000    286.08783   -39846.101    39824.038 
53800000    307.49023   -39878.674    39866.407 
53850000    264.08635   -39915.425    39919.661 
53900000    252.15179   -39948.554    39958.206 
53950000    258.09324   -40015.754    40018.058 
54000000    279.44571   -40099.107    40091.866 
54050000    276.57649   -40106.329    40095.908 
54100000    258.95087   -40128.477    40133.938 
54150000    281.22428   -40181.815    40178.381 
54200000    268.04402   -40211.841     40216.11 
54250000    269.04666   -40238.951    40225.744 
54300000    296.66033   -40252.445    40247.834 
54350000    252.22074   -40298.005    40290.652 
54400000     279.5389   -40327.545    40329.036 
54450000    272.37199    -40321.55     40318.37 
54500000    269.78701   -40339.382    40334.182 
54550000    260.13197    -40393.24    40388.474 
54600000    261.35567   -40428.394    40419.438 
54650000    273.04621   -40431.309    40428.462 
54700000    250.51351   -40509.891    40494.178 
54750000     283.5531   -40553.819    40543.018 
54800000     251.7531   -40578.323    40579.571 
54850000    287.18786    -40634.98    40637.112 
54900000    323.10284   -40721.966    40701.355 
54950000    289.37419    -40761.94    40744.238 
55000000    293.85923   -40825.651    40808.525 
55050000     278.8429   -40842.207    40832.525 
55100000     261.4851   -40858.183    40849.408 
55150000    268.15245   -40906.974    40899.965 
55200000    250.93599    -40950.89    40951.399 
55250000    265.34215   -41006.638    41001.466 
55300000    284.00561   -41035.588     41036.62 
55350000    304.75913   -41089.813    41083.355 
55400000    266.27437   -41142.229    41142.275 
55450000    277.71665   -41197.627    41187.844 
55500000    265.86349   -41216.605    41214.598 
55550000    263.95765   -41252.397     41256.53 
55600000    253.91861   -41258.446    41269.239 
55650000    255.82316   -41292.966    41300.275 
55700000     280.3438   -41325.688    41317.992 
55750000    289.38115   -41343.068    41336.659 
55800000    298.14336   -41363.687    41358.846 
55850000    229.30289   -41388.896    41383.339 
55900000     266.8925   -41420.368    41416.743 
55950000    233.56315    -41480.34    41484.009 
56000000    246.14651    -41528.85    41535.014 
56050000     309.9036   -41587.572    41581.045 
56100000    280.99872   -41616.936     41610.16 
56150000    234.65004   -41668.299    41675.383 
56200000    231.15266   -41675.158    41667.093 
56250000    298.85601   -41757.691     41739.28 
56300000    232.49428   -41806.714     41807.28 
56350000    264.16653   -41825.817    41826.624 
56400000    269.94863   -41856.466    41847.279 
56450000    294.96632   -41894.979    41878.054 
56500000    246.68431   -41932.947    41937.782 
56550000    252.02811   -41935.321    41937.093 
56600000    269.60957    -41965.63    41963.041 
56650000    305.97367   -42041.486    42033.718 
56700000    274.43928   -42091.079    42086.783 
56750000    298.72114   -42089.259    42077.483 
56800000    285.00245   -42140.303    42128.342 
56850000    270.19424   -42181.279    42178.068 
56900000    273.98614    -42253.12    42242.383 
56950000    262.03614    -42284.62    42280.886 
57000000    316.33649   -42325.097    42306.045 
57050000      286.069   -42387.697    42369.722 
57100000    300.51008   -42400.492    42385.077 
57150000    264.11863   -42415.032    42403.968 
57200000      250.956    -42468.82    42469.957 
57250000    264.89282    -42525.52    42515.015 
57300000    321.15813   -42555.051    42531.251 
57350000    293.86172    -42615.27    42602.695 
57400000    275.83638    -42673.61    42660.768 
57450000    289.66495   -42686.838     42679.37 
57500000    248.67931   -42732.038    42726.544 
57550000    274.60632    -42738.67    42717.841 
57600000     242.0494   -42754.798    42764.036 
57650000    243.04129   -42825.847    42830.761 
57700000    236.66198    -42839.59    42849.148 
57750000    307.26526   -42887.265    42870.371 
57800000    272.59249    -42936.83    42923.108 
57850000    347.68054    -43030.77    42998.046 
57900000    240.03522    -43051.93    43054.925 
57950000    277.73076    -43078.15    43073.125 
58000000    267.61797   -43125.159    43122.461 
58050000    278.61347   -43184.133    43177.522 
58100000    284.22819   -43195.756    43192.268 
58150000    306.32876   -43247.851    43230.662 
58200000    244.82708    -43285.21    43278.677 
58250000    236.59766   -43299.082    43320.099 
58300000    264.23809   -43311.171    43320.423 
58350000      275.234   -43375.143    43365.938 
58400000    260.92147   -43424.094    43424.631 
58450000    307.69887   -43488.466    43483.038 
58500000    284.94671   -43543.415    43533.698 
58550000    303.83696   -43544.727    43535.902 
58600000    286.58004   -43575.538    43571.765 
58650000    300.15589   -43616.253     43604.98 
58700000    267.02725   -43630.052    43626.579 
58750000    303.27541   -43685.537    43659.177 
58800000    249.17772   -43676.083    43668.861 
58850000    289.00524   -43687.191     43677.03 
58900000     271.3005   -43712.453    43704.336 
58950000    285.64695   -43728.817    43721.251 
59000000    295.50725   -43764.566    43749.625 
59050000    276.73444   -43772.262    43773.798 
59100000    288.35486   -43821.945    43808.737 
59150000    291.82411   -43866.193    43850.283 
59200000    287.17307   -43872.039    43870.927 
59250000    260.25683   -43909.267    43914.938 
59300000    291.85848   -43940.223    43927.706 
59350000    291.54034   -43968.327     43950.75 
59400000    251.71529   -44038.892    44021.782 
59450000    283.19261   -44110.685     44105.36 
59500000    294.72601   -44135.365    44137.365 
59550000    269.79089   -44151.093    44145.634 
59600000    325.80604   -44207.465    44177.488 
59650000    276.50391    -44240.81    44223.388 
59700000    247.49391   -44275.534    44292.792 
59750000    281.13117   -44284.516    44281.036 
59800000    245.73207   -44255.436    44278.687 
59850000    256.50644   -44287.087    44283.847 
59900000     235.5258   -44332.989    44333.246 
59950000    280.73646   -44369.891     44363.54 
60000000    256.54453   -44419.556    44417.371 
60050000    296.97956   -44448.051    44438.736 
60100000    318.48918    -44520.76    44505.721 
60150000    262.36371   -44524.093    44514.351 
60200000    324.48025   -44537.751     44507.13 
60250000    270.14291   -44546.388    44538.905 
60300000    295.14622   -44563.069    44549.891 
60350000    324.94583   -44586.414    44557.117 
60400000    252.88195   -44662.264    44654.632 
60450000    281.37976   -44735.751    44709.931 
60500000    248.15645   -44766.302    44768.929 
60550000    292.20968   -44798.633    44791.472 
60600000    260.11088   -44824.667    44820.002 
60650000     282.2844   -44900.426    44884.178 
60700000    277.67886   -44947.595    44934.416 
60750000    274.29084   -45049.569    45045.939 
60800000    255.46653   -45095.446    45094.398 
60850000    260.15186   -45131.489    45122.658 
60900000    282.94408   -45159.984    45150.627 
60950000    265.23039   -45180.094    45179.409 
61000000    300.14368   -45225.527    45216.295 
61050000     279.8499   -45259.857    45241.496 
61100000    245.31638    -45259.03    45259.622 
61150000    271.24891    -45298.96    45292.887 
61200000    275.15633   -45291.577    45285.094 
61250000    304.95451   -45329.178    45317.835 
61300000    305.49907   -45381.807    45371.241 
61350000    250.09514   -45388.879    45390.144 
61400000    301.92103   -45431.153    45403.738 
61450000    277.99964   -45435.746    45428.708 
61500000    289.21786   -45498.838    45493.567 
61550000    288.37474   -45537.361    45539.756 
61600000    290.42685    -45558.48    45548.675 
61650000    267.78763   -45612.337    45618.191 
61700000    339.64386    -45669.96    45640.058 
61750000    281.62667   -45650.104    45641.036 
61800000    248.42303   -45677.351    45663.377 
61850000    252.91897   -45704.738    45705.805 
61900000    275.21911   -45757.027    45736.815 
61950000    281.58325   -45788.288    45783.327 
62000000    248.71422    -45852.33    45852.407 
62050000    295.67746   -45910.714    45894.893 
62100000     238.8972   -45947.555     45950.54 
62150000    286.28802   -46001.604     45985.18 
62200000    283.63378   -46030.717    46020.198 
62250000    289.06847   -46067.657    46063.774 
62300000    221.97566    -46086.41    46088.487 
62350000    273.02294   -46117.523    46107.859 
62400000    230.76688   -46149.102    46162.696 
62450000    259.61942   -46169.992    46171.339 
62500000    261.05797   -46208.152    46209.595 
62550000    267.19597   -46269.775     46269.21 
62600000    261.12006   -46310.958    46316.633 
62650000    256.83935   -46372.037    46357.869 
62700000    272.89588     -46444.9    46432.446 
62750000    274.15154   -46462.158    46448.007 
62800000    289.92226     -46526.8    46523.242 
62850000     286.4694    -46567.24    46556.296 
62900000    283.03061   -46636.271    46616.714 
62950000    284.07705   -46684.084    46673.735 
63000000    228.09848   -46726.723    46719.816 
63050000    292.25874   -46744.744    46739.919 
63100000     294.2254   -46775.941    46759.807 
63150000    245.01631   -46849.577    46840.509 
63200000    292.82224   -46908.746    46888.413 
63250000    256.48071   -46968.561    46971.723 
63300000    258.96953   -46975.828    46963.635 
63350000    299.49799    -46979.38    46963.549 
63400000    260.54631   -47042.746    47038.672 
63450000    322.64261   -47092.056    47073.528 
63500000    275.26099   -47145.181    47134.511 
63550000    262.22877   -47189.528    47178.639 
63600000    273.18181   -47212.496    47208.783 
63650000     289.6488   -47279.045    47264.059 
63700000    263.78511   -47333.825     47332.76 
63750000    293.50609   -47372.277    47350.911 
63800000    269.53398   -47415.883    47399.824 
63850000     231.5229   -47424.951    47433.759 
63900000    271.34149   -47478.186    47471.675 
63950000    268.22955   -47474.803    47471.227 
64000000    251.95736   -47488.668    47494.525 
64050000    315.21207     -47531.5    47511.576 
64100000    261.45892   -47567.124    47562.754 
64150000    273.42879   -47587.078    47577.219 
64200000     293.0309   -47634.737    47623.213 
64250000    265.45737    -47679.17    47677.787 
64300000     250.7114   -47732.252    47722.922 
64350000    293.50488   -47793.567    47783.274 
64400000    271.92272   -47835.783    47833.824 
64450000    227.28022   -47886.059    47896.751 
64500000    299.50023    -47967.45    47952.806 
64550000    256.33559   -47990.378    47986.469 
64600000    279.18315   -48042.244     48044.81 
64650000    265.80176    -48074.36    48067.303 
64700000    243.33002   -48098.802    48093.019 
64750000    271.23002   -48148.236    48132.694 
64800000    280.69173   -48215.777    48199.816 
64850000    249.14455   -48275.583    48267.867 
64900000    281.07265   -48324.888    48317.821 
64950000    271.59634   -48339.997    48341.584 
65000000    310.09862   -48347.477    48320.293 
65050000    269.97992   -48355.886     48347.35 
65100000    257.99147   -48409.415    48405.844 
65150000    293.78205   -48471.366    48460.888 
65200000    277.52363   -48486.849    48483.221 
65250000     260.5898   -48503.885    48507.414 
65300000    249.66177   -48555.019    48550.238 
65350000    281.12904   -48593.652    48584.207 
65400000    314.14023    -48650.71    48645.188 
65450000    317.63025   -48678.536    48656.172 
65500000     307.1595   -48731.459    48712.373 
65550000     253.4124   -48755.101    48761.445 
65600000    289.55495   -48838.931    48831.666 
65650000    284.10272   -48886.959    48876.888 
65700000     315.8301   -48953.328    48932.343 
65750000    252.78904   -48959.194    48959.289 
65800000    266.66605    -49002.21    48998.761 
65850000    290.82571    -49036.51    49017.039 
65900000    270.44751   -49078.954     49079.16 
65950000    258.72089   -49090.394    49088.623 
66000000    268.07964   -49132.794    49130.112 
66050000     259.0169   -49203.356    49194.592 
66100000    312.97184   -49257.896     49240.98 
66150000    260.15461   -49317.718    49304.819 
66200000    284.93081   -49379.761    49379.421 
66250000    294.53024   -49439.715    49429.661 
66300000    252.25109   -49437.104     49434.23 
66350000    287.83433   -49486.312    49473.314 
66400000    279.21163   -49549.413    49545.593 
66450000    260.85939   -49594.503    49595.142 
66500000    261.89221    -49644.73    49650.628 
66550000    227.59188   -49665.443    49670.522 
66600000    334.44021   -49727.364    49701.377 
66650000    244.63911   -49748.949    49750.962 
66700000    281.39732   -49796.008    49802.858 
66750000    283.53264   -49847.699    49837.161 
66800000    302.11208   -49858.593    49844.693 
66850000    278.28362   -49893.314    49875.676 
66900000    260.34339    -49926.47    49915.099 
66950000    272.60958   -49966.556     49963.12 
67000000    268.09594   -50001.575    50008.011 
67050000    298.22148   -50059.435    50046.564 
67100000    258.01843   -50100.203    50095.643 
67150000    272.68902   -50150.755    50147.703 
67200000    274.27265   -50161.997    50152.379 
67250000    254.77342   -50191.678     50189.96 
67300000    259.52563   -50264.078    50265.522 
67350000    289.12795   -50290.387    50271.474 
67400000    287.53032   -50312.279    50291.355 
67450000    215.98935   -50313.561    50342.686 
67500000     258.4563   -50372.894    50378.698 
67550000    243.00103   -50410.792    50402.054 
67600000    262.89984   -50447.285    50444.162 
67650000    289.89612   -50467.047    50449.847 
67700000    262.88039   -50484.205    50467.761 
67750000    252.95336   -50457.276    50476.223 
67800000    298.88357   -50509.726    50497.319 
67850000    274.07727   -50544.706    50540.834 
67900000    258.43285   -50563.824     50569.05 
67950000    247.74347   -50601.411    50613.589 
68000000    264.13068   -50640.025    50633.036 
68050000    273.04358   -50690.524    50679.622 
68100000    267.67411   -50727.904     50739.93 
68150000     284.8945   -50806.586    50798.768 
68200000    280.31966   -50839.665    50842.566 
68250000    261.75001   -50927.104    50925.041 
68300000    278.18386   -50950.917    50945.367 
68350000    346.44187   -50987.522    50974.792 
68400000    274.79755   -50995.648    51001.431 
68450000    274.53534   -51022.553    51017.959 
68500000    278.12198   -51089.699    51078.882 
68550000    297.14094   -51111.843    51093.266 
68600000    308.26641   -51126.999    51099.798 
68650000    244.76941   -51137.614    51136.754 
68700000    277.46539   -51163.244    51145.094 
68750000    316.33949   -51191.633    51173.236 
68800000    298.18685   -51204.147    51194.061 
68850000    287.33276   -51272.091    51272.625 
68900000    243.73666   -51337.676    51345.749 
68950000    332.67297   -51395.327    51363.541 
69000000    266.66053   -51440.292    51440.758 
69050000    285.49868   -51485.766    51481.685 
69100000    250.53453   -51501.127    51513.049 
69150000    285.67413   -51520.384    51517.098 
69200000    239.14884   -51527.228    51538.107 
69250000    287.60495   -51561.858    51555.034 
69300000    275.72225   -51585.226    51584.909 
69350000    245.48704   -51587.502    51589.237 
69400000    245.79844   -51623.566    51633.848 
69450000    316.18033   -51679.574    51654.881 
69500000    249.23507   -51680.468    51687.489 
69550000    256.75022   -51714.565    51711.283 
69600000    242.06345   -51745.137    51755.821 
69650000    268.98514   -51803.506    51795.945 
69700000    259.84599   -51855.384    51845.586 
69750000    255.71688   -51864.603    51866.631 
69800000    248.64097   -51878.133    51878.819 
69850000    253.75454   -51904.777    51911.196 
69900000    247.75267   -51932.666    51946.155 
69950000    307.56493   -51995.766    51979.091 
70000000    266.97183   -52037.827     52032.04 
70050000    288.39856   -52072.657     52064.02 
70100000    319.63602   -52113.783     52095.85 
70150000    263.63259   -52152.535     52161.11 
70200000    235.68915   -52196.972    52203.739 
70250000     280.3094   -52264.027    52245.089 
70300000     267.2048    -52287.02    52289.285 
70350000    267.53319   -52334.287    52330.564 
70400000    239.14822   -52351.329    52364.398 
70450000    332.49826   -52391.741    52369.454 
70500000    274.65326   -52423.663    52415.442 
70550000    244.36575   -52433.508    52430.339 
70600000      267.877   -52467.872    52469.642 
70650000    262.33629   -52518.457    52513.805 
70700000    254.36223   -52575.214    52582.147 
70750000    296.46343   -52638.461    52619.114 
70800000    331.01148   -52652.364    52632.049 
70850000    259.09324   -52699.891     52708.07 
70900000    265.03907   -52729.637    52726.756 
70950000    267.21115   -52775.227    52769.792 
71000000    308.35815   -52783.383    52766.499 
71050000    276.67004   -52843.355    52837.815 
71100000    301.72278   -52894.697    52884.179 
71150000    229.70073   -52931.603     52938.36 
71200000    266.26768   -53004.624    52998.451 
71250000    272.45298   -53031.222    53013.598 
71300000    261.01949   -53022.807    53026.974 
71350000    297.04464   -53084.487    53060.452 
71400000    254.28961    -53121.41    53119.033 
71450000    236.95211   -53126.293    53128.779 
71500000    240.14374   -53156.464    53151.292 
71550000    280.72247   -53174.939    53177.808 
71600000    268.57355   -53266.634    53264.606 
71650000    296.96123   -53320.856    53316.884 
71700000    235.92517   -53336.226    53346.919 
71750000    259.76241    -53376.24    53374.983 
71800000    258.89293   -53425.074    53421.974 
71850000    251.80622   -53472.988    53467.626 
71900000    273.77651   -53495.759    53491.492 
71950000    253.57026   -53545.211    53541.055 
72000000    263.96056   -53608.697    53616.699 
72050000    305.31959   -53649.622    53624.813 
72100000    283.93324   -53671.771    53655.099 
72150000    277.07445    -53687.06    53693.046 
72200000    257.30489   -53728.743    53724.351 
72250000    240.89489   -53785.099    53792.521 
72300000    253.99226   -53836.681    53832.515 
72350000    280.20319   -53876.341    53850.595 
72400000    300.47646   -53882.567     53873.66 
72450000    221.89219   -53921.141    53925.351 
72500000    306.90426   -53962.377    53948.954 
72550000    263.17332   -53971.922    53975.026 
72600000    259.13966   -53969.609    53971.366 
72650000    245.78747   -54018.936    54014.305 
72700000    280.88126   -54038.184    54024.574 
72750000    267.84042   -54097.407    54093.684 
72800000    311.54309   -54180.926    54161.656 
72850000    321.47927   -54205.945    54174.912 
72900000    249.90039   -54220.809    54220.782 
72950000    277.23258   -54252.275    54236.344 
73000000    318.87368    -54290.95    54268.133 
73050000    267.27997   -54304.189    54305.358 
73100000    276.54598   -54343.125     54338.19 
73150000    258.86123   -54400.064    54399.427 
73200000    276.46555   -54450.633    54443.874 
73250000    329.52338   -54501.894    54474.656 
73300000     285.5984   -54555.259    54545.844 
73350000    281.55485   -54617.649    54609.545 
73400000    265.72643   -54617.075    54605.501 
73450000    281.36771   -54679.608    54667.298 
73500000    267.73883   -54776.285     54769.26 
73550000    272.66909   -54755.212    54741.536 
73600000    242.15131    -54762.49    54775.852 
73650000    210.12635   -54810.903    54836.522 
73700000    257.52419   -54841.581     54830.81 
73750000    256.34948   -54881.964    54890.493 
73800000    290.26043   -54910.885    54906.412 
73850000    282.99818   -54965.674    54957.937 
73900000    229.73076   -55010.751    55021.054 
73950000    237.27967   -55024.621    55037.133 
74000000    287.43335   -55064.239    55061.529 
74050000     271.9893   -55090.457    55088.517 
74100000    244.33371   -55143.593    55155.796 
74150000    278.62253   -55183.146    55152.955 
74200000    283.58121   -55205.246    55195.494 
74250000    296.45609   -55219.171    55207.132 
74300000     259.3443   -55255.195    55258.081 
74350000    277.71452    -55325.61    55313.078 
74400000    254.70808   -55373.708    55374.668 
74450000    302.59409   -55380.339    55366.933 
74500000     302.2931   -55469.747    55441.175 
74550000    277.85823   -55482.419    55471.163 
74600000    310.42189   -55496.051    55487.944 
74650000    249.00038   -55569.005    55570.712 
74700000    309.81426   -55628.551    55612.337 
74750000    274.68501   -55656.552    55662.551 
74800000    263.20712   -55682.264      55687.5 
74850000    274.19734   -55733.491    55725.184 
74900000    260.94325   -55756.283    55763.324 
74950000    303.40155   -55849.692     55822.27 
75000000    247.40157   -55866.119    55870.413 
75050000    272.14676   -55948.976    55938.661 
75100000    284.40993   -55970.977      55965.3 
75150000    298.18066   -56000.705    55986.415 
75200000    245.33334   -56042.593    56037.789 
75250000    292.86334   -56119.571    56110.095 
75300000    250.98041   -56138.522    56141.272 
75350000      268.295   -56210.269    56208.584 
75400000    303.72565   -56262.319    56250.494 
75450000    258.35931   -56289.108    56279.674 
75500000    280.54985   -56353.086    56349.921 
75550000    310.73377   -56421.732    56395.136 
75600000    276.86314    -56447.62    56441.951 
75650000    270.22743   -56499.113     56486.96 
75700000    266.77969   -56551.096     56535.93 
75750000    286.11264   -56576.322    56565.564 
75800000     249.6266   -56619.109    56614.782 
75850000     247.3172   -56652.963    56655.742 
75900000    242.76393   -56679.268    56681.851 
75950000    257.26134   -56724.441    56718.762 
76000000    249.71331   -56765.143    56764.133 
76050000    279.19351   -56861.198     56843.69 
76100000    272.56208   -56889.354    56878.581 
76150000    243.65679   -56952.988    56952.501 
76200000    235.21704   -57053.402    57047.895 
76250000    297.42402   -57109.971    57104.789 
76300000    273.50899   -57165.869    57156.798 
76350000    298.43216   -57205.665    57202.274 
76400000    277.46418   -57265.019    57261.543 
76450000    265.84878   -57348.682    57335.917 
76500000    288.69791   -57351.356      57342.2 
76550000    274.79471   -57395.213     57383.01 
76600000    285.77791   -57429.889    57411.418 
76650000    343.01149   -57489.833    57460.886 
76700000    293.04696   -57533.612    57520.209 
76750000    274.58925    -57568.57    57563.146 
76800000    321.24349   -57635.805    57618.975 
76850000    265.94103   -57669.756    57659.366 
76900000    289.15978    -57689.79    57683.193 
76950000    279.23433    -57765.37     57753.65 
77000000    264.39939   -57796.128    57798.138 
77050000    244.53863   -57811.141    57827.874 
77100000    239.88974   -57856.087    57856.641 
77150000    262.85567   -57895.883    57884.885 
77200000    234.35508   -57908.301    57923.696 
77250000    261.85283   -57974.371    57961.155 
77300000     262.6437   -58002.142    57996.768 
77350000    262.79774   -58022.403    58026.853 
77400000    295.89584   -58071.159     58043.41 
77450000     293.1665   -58125.738    58115.941 
77500000    236.69231   -58167.381    58166.162 
77550000    269.40808    -58191.28    58193.637 
77600000    261.89112   -58227.966    58238.121 
77650000    239.05191   -58311.402    58317.024 
77700000    271.93615   -58372.633     58352.99 
77750000     282.0896   -58413.278    58404.755 
77800000    256.62717   -58455.754    58469.533 
77850000    316.95015   -58541.187    58519.291 
77900000    280.16796   -58555.137     58542.53 
77950000    252.89589   -58570.375    58574.778 
78000000    273.22762   -58619.356    58620.401 
78050000    277.40327   -58643.994    58643.164 
78100000     292.1395   -58719.928    58703.868 
78150000    299.19717   -58750.383    58737.729 
78200000    284.51266   -58797.922    58785.495 
78250000    277.86212   -58884.123    58868.911 
78300000    307.76814   -58915.479     58906.94 
78350000    272.08414   -58949.417    58950.069 
78400000    263.64457   -58957.853    58953.868 
78450000    251.71035   -58995.234    58990.915 
78500000    284.51238    -59054.05    59032.911 
78550000    264.87095   -59055.298    59047.759 
78600000    286.93586   -59106.958    59101.165 
78650000    238.29822    -59186.57    59187.383 
78700000    329.47985   -59195.212    59174.364 
78750000    267.81091   -59240.357    59243.059 
78800000    254.29932   -59273.687    59280.446 
78850000    254.81001   -59321.213    59307.453 
78900000    260.11602   -59352.477    59360.192 
78950000    267.63416   -59412.099    59398.632 
79000000    267.80802   -59446.009    59444.457 
79050000    295.18238   -59486.423    59480.565 
79100000    242.10581   -59520.723    59513.808 
79150000    312.35034   -59553.376    59526.948 
79200000    212.85817   -59555.854    59554.838 
79250000    265.42248   -59576.297    59566.897 
79300000     226.5691   -59592.679    59598.094 
79350000    241.07307   -59659.812    59658.105 
79400000    254.32014   -59648.705    59649.285 
79450000    292.46561    -59712.76    59694.124 
79500000    293.86338   -59746.022    59739.718 
79550000    257.17558   -59793.831    59800.163 
79600000     251.5642   -59797.943    59799.915 
79650000    250.54667   -59821.016    59822.908 
79700000    244.97265   -59862.236    59857.144 
79750000    268.33054   -59905.317    59899.935 
79800000    305.17182   -59941.101    59912.722 
79850000    275.84611    -59990.59    59981.424 
79900000     233.5511   -60015.205    60021.064 
79950000     293.2226   -60070.315    60060.444 
80000000     238.1624   -60134.267    60145.912 
80050000    261.31412    -60166.61    60172.732 
80100000    259.71383   -60181.817    60171.021 
80150000    255.20788   -60207.402    60204.742 
80200000     275.0063   -60244.352    60233.002 
80250000    278.53929     -60304.7    60292.839 
80300000    254.84549   -60348.547    60346.684 
80350000    273.11731   -60378.959    60375.833 
80400000    229.65771   -60412.957    60421.082 
80450000    275.05244   -60480.722    60472.082 
80500000    271.52182   -60524.884    60518.897 
80550000    318.65096   -60584.891    60575.968 
80600000    274.95061    -60600.92    60591.126 
80650000     255.6164   -60615.578    60613.463 
80700000    272.69226   -60637.116    60634.614 
80750000    287.69204   -60682.828    60657.688 
80800000    306.64359   -60704.401    60700.526 
80850000    284.64853   -60778.584    60757.872 
80900000    284.89457   -60820.721    60808.987 
80950000     261.2918   -60834.707    60827.379 
81000000    244.06011   -60827.565    60828.773 
81050000    274.77059    -60837.05    60840.922 
81100000    273.10353   -60861.235    60844.534 
81150000     269.5991   -60906.367    60902.162 
81200000    284.02052   -60932.972    60911.938 
81250000    279.93122     -60957.8     60947.62 
81300000     283.7803   -60960.387    60949.726 
81350000    281.78176   -61008.484    61001.475 
81400000    275.69275   -61033.898    61034.973 
81450000    272.44683    -61048.19    61044.236 
81500000    303.09101   -61085.867    61063.469 
81550000    225.19492    -61128.56    61132.218 
81600000    289.73798   -61169.293    61165.091 
81650000    244.92613   -61185.813    61198.054 
81700000     279.8277   -61240.466    61230.736 
81750000    261.05882   -61287.523    61282.056 
81800000     279.5533   -61320.093    61320.742 
81850000     223.7216    -61350.59    61364.912 
81900000    276.00534    -61374.49    61372.749 
81950000    279.65323   -61430.907    61410.613 
82000000    257.56935   -61461.667    61459.102 
82050000    309.12036    -61522.34    61501.683 
82100000    272.55762   -61525.969    61523.272 
82150000    245.03701   -61544.591    61551.765 
82200000    220.91059   -61593.404    61592.893 
82250000    287.37725   -61624.813    61624.117 
82300000    281.68266    -61648.73    61641.586 
82350000    282.99133   -61669.501    61662.563 
82400000    272.10656   -61717.016    61707.968 
82450000      257.047   -61709.809    61710.442 
82500000    256.16744   -61758.793    61756.061 
82550000    264.82291   -61769.924    61756.568 
82600000    267.22631   -61819.872    61818.438 
82650000    287.41866   -61837.031    61834.319 
82700000    279.53537   -61910.296    61903.302 
82750000    285.78281   -61943.305    61930.644 
82800000    272.96808   -61952.205    61943.816 
82850000    251.12728   -62000.291    62003.725 
82900000    286.00746   -62057.624    62038.895 
82950000    293.63419   -62102.213    62097.093 
83000000    253.99832   -62128.868     62126.81 
83050000    251.49591   -62130.279    62131.474 
83100000    298.86214   -62200.853    62178.355 
83150000    268.15791   -62259.568    62242.905 
83200000    286.32448   -62294.716    62285.509 
83250000    251.05645   -62289.831    62292.474 
83300000    260.93239   -62329.601    62338.338 
[...]
383350000    251.28256   -293239.96    293231.87 
383400000    230.85055   -293252.57    293259.57 
383450000    280.16772   -293327.85    293330.71 
383500000    295.08657   -293429.64    293419.75 
383550000    256.45067   -293478.46    293482.13 
383600000    271.38048   -293501.85    293503.79 
383650000    293.19062   -293586.85     293579.3 
383700000    221.32541   -293584.43    293589.71 
383750000    297.60102   -293635.25    293622.53 
383800000    262.33727   -293677.35    293672.49 
383850000     241.5272   -293727.64    293730.82 
383900000    301.20178   -293759.71    293739.36 
383950000    244.98586   -293785.27    293793.38 
384000000    245.08837    -293825.2    293824.91 
384050000     245.8745    -293829.9    293830.96 
384100000    265.30925   -293838.19    293834.43 
384150000    283.74281   -293859.18    293860.86 
384200000      302.922   -293881.44     293869.1 
384250000    289.69793   -293907.55    293899.02 
384300000    258.33303   -293900.76     293900.1 
384350000    295.48341   -293937.32    293921.53 
384400000    267.65608   -293985.76     293978.2 
384450000    252.40603   -294027.04    294024.93 
384500000     241.4572   -294038.35    294037.99 
384550000    281.98846   -294056.33    294049.82 
384600000    220.11555   -294058.02    294071.99 
384650000    278.60456   -294147.85    294129.23 
384700000     219.9907   -294198.47    294192.78 
384750000    266.55693   -294270.35    294262.76 
384800000     300.1803    -294337.2    294323.85 
384850000    284.07906   -294400.71    294383.24 
384900000    253.39264   -294445.13    294439.29 
384950000    245.24171   -294448.59    294451.29 
385000000    280.03771   -294470.67    294457.86 
385050000     259.0973   -294497.38    294501.91 
385100000    264.18836   -294528.94     294526.6 
385150000    279.35295   -294568.69    294560.32 
385200000    309.19358   -294614.54    294597.06 
385250000    284.74354   -294596.55    294584.63 
385300000    271.91578   -294610.27    294591.62 
385350000    300.94982   -294661.69    294641.55 
385400000    273.08095   -294695.58    294707.86 
385450000    266.73946   -294716.71    294708.62 
385500000    271.09978   -294745.83    294742.16 
385550000    249.35159   -294787.09    294790.21 
385600000     243.3623   -294789.83    294790.96 
385650000     261.9467   -294782.38    294787.29 
385700000    237.38537   -294844.88    294838.86 
385750000    277.48884    -294905.8    294895.18 
385800000     253.2751   -294923.43    294923.48 
385850000    272.88629   -294941.49    294943.47 
385900000    266.07641   -294936.52    294939.81 
385950000    265.67667   -294960.02     294953.7 
386000000    284.75076   -294998.01    294984.92 
386050000    260.58289   -295034.23    295029.36 
386100000    245.45538   -295049.14    295050.09 
386150000    257.85273   -295069.03    295059.08 
386200000    265.39352   -295094.18    295092.61 
386250000    302.22922   -295143.99    295134.72 
386300000    273.69007   -295188.87    295195.59 
386350000    251.24247   -295232.19    295231.57 
386400000    290.23767   -295254.75     295246.3 
386450000       268.93    -295274.5    295275.86 
386500000    288.17937   -295276.78    295266.52 
386550000     287.9821   -295305.35    295293.31 
386600000    294.73702   -295335.61    295316.88 
386650000    266.31478   -295396.01    295385.81 
386700000    259.58009   -295431.87    295422.03 
386750000    253.15133   -295444.44    295443.56 
386800000    296.37279   -295520.35    295512.12 
386850000    258.95276   -295536.24    295534.55 
386900000    301.18311   -295560.98    295561.77 
386950000    278.98729    -295592.1    295583.82 
387000000     298.3266   -295673.97    295660.07 
387050000     285.9682   -295729.31     295722.2 
387100000    298.36126   -295740.92     295725.6 
387150000    256.56355   -295765.42    295769.46 
387200000    250.78534   -295783.11    295793.21 
387250000    287.45264   -295834.17    295820.06 
387300000    262.67129   -295881.07    295869.59 
387350000    266.99736   -295912.63    295918.52 
387400000    266.12351   -295937.81    295938.81 
387450000      267.047   -295989.15    295988.16 
387500000    257.32345   -296004.03    296012.41 
387550000     263.4591   -296019.64    296014.35 
387600000    273.49844   -296050.61    296044.33 
387650000    306.81069   -296056.48    296040.88 
387700000     292.3708   -296126.29    296113.85 
387750000    305.21918   -296166.14     296144.8 
387800000    283.62354   -296197.53    296197.47 
387850000      269.062   -296244.46    296215.29 
387900000    240.20884   -296275.49    296294.59 
387950000      304.197   -296345.48    296329.78 
388000000     283.2844   -296360.67    296351.01 
388050000     272.5254   -296375.58    296377.12 
388100000    347.14481   -296437.94    296411.39 
388150000    260.74222   -296476.55    296474.31 
388200000    273.42258   -296516.77    296509.66 
388250000    293.93604   -296557.02    296537.04 
388300000    280.75941   -296593.61    296599.38 
388350000    260.81482   -296606.75    296612.28 
388400000    278.53735   -296656.17    296643.14 
388450000    254.11207   -296654.56    296665.73 
388500000    248.57252   -296721.53    296723.12 
388550000    258.41796   -296769.24    296757.59 
388600000    255.41015   -296765.01    296770.99 
388650000    255.06336   -296811.25    296812.46 
388700000    297.52592   -296829.72    296805.09 
388750000    279.64157   -296867.52    296857.57 
388800000    301.27749   -296915.28    296889.52 
388850000    284.83295   -296890.85    296876.84 
388900000    298.10785   -296929.54    296924.04 
388950000    269.41744   -296967.24    296968.35 
389000000    271.41292   -297012.18    297008.18 
389050000    289.74776   -297040.54    297023.73 
389100000    260.91162   -297101.51    297110.49 
389150000    292.04377   -297138.06    297135.04 
389200000    302.06892   -297218.26    297215.41 
389250000    247.85555   -297238.45    297249.62 
389300000    281.32338   -297265.16    297259.33 
389350000    276.30092   -297288.97    297285.41 
389400000    234.52745   -297317.89    297327.89 
389450000    289.17595   -297400.88    297392.85 
389500000     320.6686   -297475.15     297435.2 
389550000    233.33125   -297494.72    297503.36 
389600000    273.32376   -297547.36    297508.41 
389650000    266.98796   -297539.81    297525.64 
389700000    226.91963   -297563.13    297576.68 
389750000    244.49045   -297594.85    297597.92 
389800000     236.8885    -297688.5    297688.19 
389850000    248.52969   -297693.92    297705.33 
389900000    295.06635   -297695.69    297687.57 
389950000     277.2577   -297700.85    297693.02 
390000000    276.18483    -297722.8    297721.57 
390050000    317.15893    -297750.8    297731.92 
390100000    235.29587   -297787.37    297796.23 
390150000      277.529   -297826.43    297829.92 
390200000    258.23235   -297858.71    297850.75 
390250000     269.2304   -297896.92    297895.07 
390300000    277.99021   -297964.09    297949.34 
390350000    257.51423   -297934.81     297941.7 
390400000    265.25398   -297976.37    297973.82 
390450000    259.97814   -298011.25    298009.64 
390500000     271.2233   -298049.05    298041.96 
390550000    267.43603    -298083.2    298077.52 
390600000    238.39787   -298124.03    298124.75 
390650000    313.68478   -298148.64    298120.37 
390700000    306.71333   -298219.31    298212.39 
390750000    253.81341   -298266.39    298271.08 
390800000    259.88899   -298332.25    298332.51 
390850000    314.99433   -298376.61    298354.96 
390900000    256.79098   -298384.28    298375.26 
390950000    261.06211   -298393.41    298389.12 
391000000    291.35093   -298418.64    298413.34 
391050000    255.25489   -298470.23    298479.12 
391100000    262.66164   -298518.41    298508.53 
391150000    287.94302   -298597.59    298589.49 
391200000    277.08507   -298654.89    298657.45 
391250000    239.77603   -298717.46    298730.83 
391300000    272.85872    -298786.7    298768.85 
391350000     261.8688   -298801.32    298793.71 
391400000    258.69069    -298821.5    298813.58 
391450000    322.74539   -298855.71    298836.57 
391500000    260.66897   -298852.41    298862.71 
391550000    236.05872   -298890.34    298904.09 
391600000    284.60279   -298909.81    298896.28 
391650000    274.66932   -298934.47    298922.32 
391700000    274.82181   -298914.96     298903.5 
391750000    275.18624    -298950.4    298954.58 
391800000     271.4661   -299029.27    299029.56 
391850000    320.89578   -299092.96    299070.95 
391900000     264.5912    -299115.2     299108.8 
391950000    299.50588   -299176.98    299165.67 
392000000    265.94124   -299249.96    299252.43 
392050000    274.79722   -299261.86    299271.97 
392100000     293.8914   -299312.87    299291.36 
392150000    257.11927   -299362.01    299359.64 
392200000     247.6271   -299419.66    299414.95 
392250000     300.0212   -299441.32     299440.2 
392300000    258.12852      -299467    299474.92 
392350000    274.64493   -299527.56     299513.6 
392400000    284.09873    -299549.8    299525.52 
392450000    270.14783   -299591.97    299592.34 
392500000    211.55317   -299626.92    299640.04 
392550000     279.6001   -299716.94    299713.03 
392600000    254.43082   -299747.14     299765.1 
392650000    292.52432   -299767.04    299771.28 
392700000    263.35579   -299840.13    299841.12 
392750000    264.41459   -299888.75    299873.34 
392800000     244.4713   -299932.65     299922.4 
392850000    288.97873   -299930.23     299929.7 
392900000    281.88188   -299981.92    299969.13 
392950000    241.60539   -300021.68     300028.4 
393000000    289.25065   -300083.45    300074.58 
393050000    286.83909   -300156.58    300158.42 
393100000    279.15765   -300205.65    300193.76 
393150000    284.36243      -300253    300240.34 
393200000    233.03091   -300271.62    300282.61 
393250000    270.93206   -300323.03    300306.57 
393300000    243.94463   -300381.27    300381.06 
393350000    280.29348   -300425.29    300422.47 
393400000    250.73824   -300454.44    300443.79 
393450000    285.73096   -300477.12    300467.69 
393500000    289.14576   -300539.96    300526.32 
393550000    260.17223   -300544.41    300546.39 
393600000    307.78217   -300577.74    300552.32 
393650000    299.63544   -300639.66    300622.04 
393700000    297.61531   -300654.59    300647.78 
393750000     289.9959   -300699.25    300696.24 
393800000    258.59857   -300729.09    300729.91 
393850000    268.20596   -300735.76    300738.63 
393900000    272.47574   -300767.47     300759.4 
393950000    289.50755   -300827.85    300814.21 
394000000    262.58397   -300841.18    300840.89 
394050000    302.53163   -300866.17    300860.06 
394100000    334.30363   -300900.02    300877.05 
394150000    249.31703      -300892    300896.46 
394200000    284.05585   -300947.29    300923.93 
394250000    231.10913   -300975.33    300978.25 
394300000    250.16316   -301042.85    301037.13 
394350000    274.06856   -301070.02     301060.2 
394400000    260.10801   -301124.77    301112.32 
394450000    273.88902   -301167.06    301166.92 
394500000    261.24765   -301200.65    301201.76 
394550000    300.11505   -301212.83    301188.23 
394600000    289.49308   -301233.49    301231.27 
394650000    263.98762   -301281.78    301274.15 
394700000    319.90544   -301349.36    301321.25 
394750000    255.19292   -301376.11    301368.45 
394800000    272.43426   -301414.04    301414.09 
394850000    278.70815   -301455.41    301451.09 
394900000    286.02227   -301491.88    301494.86 
394950000    249.29444   -301532.82    301526.18 
395000000    277.33106   -301575.37    301567.19 
395050000    279.84575   -301593.89    301590.02 
395100000    276.61183   -301627.81    301615.46 
395150000    259.78328   -301678.86    301681.26 
395200000    257.04667    -301712.4    301708.34 
395250000    296.54658   -301753.71    301737.89 
395300000    301.88275   -301827.72    301819.13 
395350000    281.87577   -301860.21    301860.41 
395400000     247.2564   -301857.52    301864.66 
395450000     271.8383   -301898.99    301900.47 
395500000    248.67959   -301976.54    301985.38 
395550000    243.22491    -302017.7     302011.1 
395600000    257.53962   -302096.64    302088.31 
395650000    319.81641   -302125.04    302104.92 
395700000    277.78359   -302152.43    302144.92 
395750000    262.24239   -302219.51    302207.57 
395800000    238.23152   -302246.46     302243.7 
395850000    316.81893   -302300.98     302284.6 
395900000    313.09842      -302376    302361.11 
395950000    296.58776   -302434.52    302424.72 
396000000    289.61374   -302523.67    302517.34 
396050000    297.08508   -302547.74    302540.35 
396100000    308.82913   -302571.04    302562.82 
396150000    289.22232   -302636.22    302624.64 
396200000    315.22555    -302678.9    302654.16 
396250000     247.2665   -302714.21    302721.56 
396300000    248.52444   -302756.43    302768.68 
396350000    286.75658   -302835.14    302831.99 
396400000    280.01476   -302862.11    302851.77 
396450000    247.65623   -302866.12    302863.02 
396500000    247.10811   -302852.61    302859.16 
396550000     304.3908   -302875.51    302843.76 
396600000    273.44696   -302900.54    302897.68 
396650000    237.44173   -302905.25    302907.02 
396700000    308.68756      -302970    302956.79 
396750000    328.51077   -302986.91    302973.41 
396800000    271.99933    -303048.3    303048.49 
396850000    294.16481   -303085.04    303075.28 
396900000    280.28114   -303126.11    303127.55 
396950000    297.65508   -303142.84    303127.65 
397000000    282.49729   -303203.05     303194.9 
397050000    274.70423   -303232.59    303222.82 
397100000    244.55863   -303276.81    303273.48 
397150000    297.43491   -303314.49    303285.23 
397200000    278.24617   -303370.42    303374.76 
397250000    288.31926    -303422.4    303415.81 
397300000    306.76151   -303459.69    303441.48 
397350000    305.70196   -303464.99    303449.84 
397400000    286.65111   -303518.47    303502.13 
397450000    280.91056   -303536.28    303528.13 
397500000    240.86268   -303569.21    303582.09 
397550000    265.12716   -303579.68    303576.75 
397600000    265.33065   -303616.78    303622.03 
397650000    249.13967    -303649.1    303654.53 
397700000    320.91798   -303657.31    303626.64 
397750000    307.53601   -303689.85    303677.74 
397800000    307.09696   -303715.12    303707.64 
397850000    266.05197      -303741    303737.94 
397900000    276.31387   -303804.73    303804.04 
397950000    262.79779   -303854.66    303845.84 
398000000    227.38087   -303902.71    303899.45 
398050000    273.12354    -303988.9    303979.21 
398100000     274.0965   -304023.39    304014.42 
398150000    287.08595   -304072.54    304063.85 
398200000    256.61006   -304149.74    304146.61 
398250000    242.75873   -304217.72    304214.09 
398300000    258.37152   -304272.63    304272.23 
398350000    284.51984   -304333.25    304320.46 
398400000    300.25251    -304333.2    304324.27 
398450000    277.08537   -304379.31    304370.01 
398500000    224.13739   -304429.93    304447.03 
398550000     244.5665   -304479.37    304486.35 
398600000    269.98433   -304510.54    304500.38 
398650000    266.31836   -304571.82     304561.3 
398700000    272.18718   -304592.22    304580.36 
398750000    265.61517   -304625.28    304627.58 
398800000    324.38818   -304629.46     304620.3 
398850000    296.14264   -304663.73    304653.85 
398900000    286.09391   -304704.08    304687.36 
398950000     292.6144   -304728.89    304716.66 
399000000    291.68361    -304770.9    304750.91 
399050000    282.11942   -304756.18    304743.31 
399100000    234.48737   -304794.94    304800.82 
399150000    314.58304      -304831     304815.4 
399200000    273.35792   -304844.04    304829.98 
399250000    267.10292    -304883.4    304894.82 
399300000    263.61925   -304946.89    304931.81 
399350000    279.59529   -304992.29    304975.92 
399400000    280.54392   -305043.85     305021.5 
399450000    267.87041   -305064.61    305061.89 
399500000    260.15876   -305120.47    305111.24 
399550000    255.08739   -305140.26    305139.29 
399600000    268.36864   -305170.05     305166.8 
399650000    281.94132    -305210.7    305207.32 
399700000    274.20834   -305224.25    305229.41 
399750000    266.48564   -305265.02    305259.79 
399800000    267.45257   -305312.63    305312.18 
399850000    251.86774   -305335.91    305321.75 
399900000    275.71624   -305360.87    305353.26 
399950000    268.24376   -305381.47    305383.37 
400000000    271.37728   -305464.33    305457.96 
400050000    306.13944   -305464.77    305437.06 
400100000    301.49043   -305542.29    305522.24 
400150000    278.57255   -305582.76    305569.77 
400200000     292.3173   -305630.09    305609.91 
400250000    275.16917   -305651.08    305641.94 
400300000    294.28527   -305669.12    305669.54 
400350000    289.45877    -305711.1    305694.93 
400400000    331.13908    -305742.7     305717.2 
400450000     246.4668    -305750.2    305753.11 
400500000    286.34083   -305803.92     305784.7 
400550000    292.77969   -305867.17    305862.47 
400600000    279.34907   -305891.27    305880.06 
400650000    290.72919   -305886.26    305878.71 
400700000    241.67395   -305922.91    305929.14 
400750000     314.6989   -305934.93    305920.19 
400800000    274.11545   -305956.17    305952.15 
400850000    278.58041    -306002.5    305995.49 
400900000    282.38824   -306042.93    306037.34 
400950000    285.35352   -306137.98    306135.37 
401000000    238.67679   -306169.98    306188.04 
401050000    254.17295   -306192.37    306191.36 
401100000    299.47428   -306230.14    306219.07 
401150000    307.31306   -306266.74     306259.7 
401200000    270.24953   -306295.25    306289.46 
401250000    247.69108   -306349.14    306354.84 
401300000    219.40032   -306390.37    306409.78 
401350000     281.0422   -306422.04    306417.17 
401400000     276.1975   -306441.29       306435 
401450000    323.25071   -306456.36    306443.39 
401500000      255.432   -306480.21    306491.32 
401550000    254.91528   -306520.44    306515.77 
401600000    270.71828   -306558.87    306557.04 
401650000    307.73145   -306605.21    306594.32 
401700000    274.93159   -306642.15    306635.32 
401750000    229.69905   -306683.25     306687.9 
401800000    273.96357   -306742.03    306736.12 
401850000    263.48272   -306777.14    306763.16 
401900000    277.80729    -306822.9    306818.17 
401950000    326.83352   -306877.39    306864.22 
402000000    275.38616   -306876.34     306868.9 
402050000    254.98165   -306897.98    306898.97 
402100000    258.91782   -306957.25    306944.72 
402100482     352.0868   -306970.22    306940.73
Loop time of 12843.7 on 32 procs for 400000000 steps with 100 atoms

Performance: 672.703 ns/day, 0.036 hours/ns, 31143.656 timesteps/s
100.0% CPU use with 32 MPI tasks x no OpenMP threads

MPI task timing breakdown:
Section |  min time  |  avg time  |  max time  |%varavg| %total
---------------------------------------------------------------
Pair    | 299.96     | 387.15     | 474.82     | 183.4 |  3.01
Bond    | 533.17     | 569.99     | 633.62     | 120.5 |  4.44
Neigh   | 200.03     | 274.82     | 345.46     | 267.7 |  2.14
Comm    | 9850.9     | 10065      | 10335      | 110.1 | 78.36
Output  | 26.036     | 27.116     | 39.044     |  41.3 |  0.21
Modify  | 1227.6     | 1348.2     | 1502.4     | 211.3 | 10.50
Other   |            | 171.8      |            |       |  1.34

Nlocal:    3.125 ave 4 max 3 min
Histogram: 28 0 0 0 0 0 0 0 0 4
Nghost:    20.25 ave 21 max 20 min
Histogram: 24 0 0 0 0 0 0 0 0 8
Neighs:    21.4688 ave 38 max 1 min
Histogram: 2 0 3 2 6 6 3 5 2 3

Total # of neighbors = 687
Ave neighs/atom = 6.87
Ave special neighs/atom = 6
Neighbor list builds = 8000000
Dangerous builds not checked
Total wall time: 3:35:40
