LAMMPS (22 Aug 2018)
### INITIALIZATION ###
units        real
processors * 1 1

atom_style	 full
pair_style	 lj/class2/coul/cut 10.0 10.0
pair_modify  mix sixthpower
bond_style   morse
#angle_style  class2
angle_style quartic
dihedral_style multi/harmonic
#improper_style class2
read_data	./data.lammps
  orthogonal box = (0 -50 -50) to (123.388 50 50)
  32 by 1 by 1 MPI processor grid
  reading atoms ...
  100 atoms
  scanning bonds ...
  1 = max bonds/atom
  scanning angles ...
  1 = max angles/atom
  scanning dihedrals ...
  1 = max dihedrals/atom
  reading bonds ...
  100 bonds
  reading angles ...
  100 angles
  reading dihedrals ...
  100 dihedrals
  2 = max # of 1-2 neighbors
  2 = max # of 1-3 neighbors
  4 = max # of 1-4 neighbors
  6 = max # of special neighbors

region fix1  block $(xlo) $(xlo+6)    INF INF INF INF units box
region fix1  block 0 $(xlo+6)    INF INF INF INF units box
region fix1  block 0 6    INF INF INF INF units box
region fix2  block $(xhi-6) $(xhi)    INF INF INF INF units box
region fix2  block 117.38787800000000061 $(xhi)    INF INF INF INF units box
region fix2  block 117.38787800000000061 123.38787800000000061    INF INF INF INF units box
region rqin  block $(xlo+6) $(xlo+30) INF INF INF INF units box
region rqin  block 6 $(xlo+30) INF INF INF INF units box
region rqin  block 6 30 INF INF INF INF units box
region rqout block $(xhi-30) $(xhi-6) INF INF INF INF units box
region rqout block 93.387878000000000611 $(xhi-6) INF INF INF INF units box
region rqout block 93.387878000000000611 117.38787800000000061 INF INF INF INF units box
region rfree block $(xlo+6) $(xhi-6) INF INF INF INF units box
region rfree block 6 $(xhi-6) INF INF INF INF units box
region rfree block 6 117.38787800000000061 INF INF INF INF units box

group qin region rqin
19 atoms in group qin
group qout region rqout
19 atoms in group qout
group gfree region rfree
90 atoms in group gfree

dump 1 all atom 1000000 vmd.atom
dump_modify 1 sort id
dump 2 all xyz 1000000 vmd.xyz
dump_modify 2 element  C

change_box all x scale 1.05 remap
  orthogonal box = (-3.0847 -50 -50) to (126.473 50 50)

fix 13 all box/relax x 0.0
minimize 1.0e-8 1.0e-8 10000 10000000
WARNING: Using 'neigh_modify every 1 delay 0 check yes' setting during minimization (../min.cpp:168)
Neighbor list info ...
  update every 1 steps, delay 0 steps, check yes
  max neighbors/atom: 2000, page size: 100000
  master list distance cutoff = 12
  ghost atom cutoff = 12
  binsize = 6, bins = 22 17 17
  1 neighbor lists, perpetual/occasional/extra = 1 0 0
  (1) pair lj/class2/coul/cut, perpetual
      attributes: half, newton on
      pair build: half/bin/newton
      stencil: half/bin/3d/newton
      bin: standard
WARNING: Inconsistent image flags (../domain.cpp:782)
Per MPI rank memory allocation (min/avg/max) = 9.807 | 9.855 | 10.18 Mbytes
Step Temp E_pair E_mol TotEng Press Volume 
       0            0   -4.1958033    161.23751     157.0417   -113.29197    1295572.7 
     482            0   -5.3897013    21.003069    15.613368 2.3532673e-06    1233877.6 
Loop time of 0.0708472 on 32 procs for 482 steps with 100 atoms

99.2% CPU use with 32 MPI tasks x no OpenMP threads

Minimization stats:
  Stopping criterion = energy tolerance
  Energy initial, next-to-last, final = 
         157.041702081      15.6133681307      15.6133681227
  Force two-norm initial, final = 5647.53 0.0002917
  Force max component initial, final = 5641.67 6.38893e-05
  Final line search alpha, max atom move = 0.00241164 1.54078e-07
  Iterations, force evaluations = 482 488

MPI task timing breakdown:
Section |  min time  |  avg time  |  max time  |%varavg| %total
---------------------------------------------------------------
Pair    | 0.0010194  | 0.0013392  | 0.0017509  |   0.6 |  1.89
Bond    | 0.0014523  | 0.0017392  | 0.002301   |   0.5 |  2.45
Neigh   | 0.00032406 | 0.00034724 | 0.00036408 |   0.0 |  0.49
Comm    | 0.01258    | 0.01403    | 0.015585   |   0.5 | 19.80
Output  | 0          | 0          | 0          |   0.0 |  0.00
Modify  | 0          | 0          | 0          |   0.0 |  0.00
Other   |            | 0.05339    |            |       | 75.36

Nlocal:    3.125 ave 4 max 3 min
Histogram: 28 0 0 0 0 0 0 0 0 4
Nghost:    19.375 ave 20 max 18 min
Histogram: 4 0 0 0 0 12 0 0 0 16
Neighs:    18.75 ave 24 max 14 min
Histogram: 2 9 3 0 0 0 3 8 3 4

Total # of neighbors = 600
Ave neighs/atom = 6
Ave special neighs/atom = 6
Neighbor list builds = 6
Dangerous builds = 0
unfix 13

restart 100000 rstrt_1 rstrt_2
### SETTINGS ###
neighbor    2.5 bin
neigh_modify	delay 0 every 50 check no

timestep 0.25
thermo		1000
thermo_modify flush yes

fix 		NPT all npt temp 0.1 0.1 25  x 0 0 2500
run 	1000000
WARNING: Inconsistent image flags (../domain.cpp:782)
Per MPI rank memory allocation (min/avg/max) = 8.192 | 8.24 | 8.569 Mbytes
Step Temp E_pair E_mol TotEng Press Volume 
     482            0   -5.3897013    21.003069    15.613368 2.3532673e-06    1233877.6 
    1000 1.3616945e-09   -5.3897015     21.00307    15.613368 -4.3745397e-06    1233877.6 
    2000 7.890452e-07   -5.3897026    21.003071    15.613368 -6.4636001e-05    1233877.5 
    3000 0.0056828419   -5.3897029    21.003477    15.615451 -0.0011014084    1233877.5 
    4000  0.053700375   -5.3899703    21.107865    15.733742 -0.011097465    1233869.5 
    5000  0.096127195   -5.3898964    21.025927    15.664398 -0.0098257431    1233860.3 
    6000   0.10329213   -5.3897524    21.040529    15.681258 -0.0066148663    1233876.1 
    7000   0.10030623   -5.3898764    21.034473    15.674196 -0.0096004028    1233856.2 
    8000   0.10156305   -5.3898935    21.026304    15.666381 -0.0085074372    1233867.4 
    9000  0.078368838   -5.3897376    21.058858    15.692247 -0.0067218151    1233873.9 
   10000   0.10318422   -5.3898069    21.023068    15.663711 -0.006806183    1233866.7 
   11000  0.085178698   -5.3899839     21.05528    15.690432 -0.008735863      1233857 
   12000   0.10292713   -5.3896707    21.027431    15.668134 -0.0015416883    1233872.3 
   13000  0.088528292   -5.3897358    21.035603    15.671992 -0.0019068318    1233862.8 
   14000   0.11454576   -5.3898655    21.036344    15.680281 -0.00092797032    1233869.3 
   15000  0.073771708   -5.3895805    21.039907    15.672096   0.00446757    1233881.2 
   16000   0.10149236   -5.3895764    21.020082    15.660456 0.0055456892    1233877.2 
   17000   0.10590494   -5.3897998    21.047944    15.689397 0.0062759913    1233869.8 
   18000   0.10999108   -5.3894879    21.031052    15.674023    0.0121968    1233885.2 
   19000  0.097528092   -5.3894611    21.029455    15.668774  0.012542214    1233879.8 
   20000   0.10058264   -5.3896912    21.028674    15.668665  0.010849279    1233873.1 
   21000   0.10178465   -5.3894413    21.045205      15.6858  0.017970411      1233890 
   22000   0.11019684   -5.3893891    21.022219    15.665349  0.015770122    1233887.5 
   23000   0.10546928   -5.3896723    21.034091    15.675542  0.012262781    1233871.7 
   24000    0.1086044   -5.3894774    21.039729    15.682301  0.017228806    1233887.2 
   25000   0.11694967   -5.3893545    21.032154    15.677311  0.017058696    1233888.5 
   26000  0.088410308   -5.3896815    21.024042    15.660451 0.0090340403    1233871.7 
   27000   0.10834165     -5.38957    21.043455    15.685856  0.012735659    1233881.8 
   28000  0.096023336   -5.3894274    21.032904    15.671813  0.011836585    1233887.9 
   29000   0.10916279   -5.3897566    21.026503     15.66896 0.0034497341    1233866.6 
   30000   0.11660737    -5.389725    21.032255    15.676941 0.0030332236    1233872.4 
   31000   0.10744217    -5.389512    21.043705    15.685899 0.0052018423    1233884.7 
   32000  0.086173145   -5.3898275    21.024387     15.65999 -0.0032472609    1233865.2 
   33000   0.10497083   -5.3898655    21.029784    15.670895 -0.0056241004    1233863.4 
   34000   0.10504294    -5.389637    21.040397    15.681758 -0.0034986898    1233879.1 
   35000  0.081805091    -5.389922    21.032492    15.666711 -0.010496481    1233859.9 
   36000  0.088489951   -5.3899897    21.026987    15.663111 -0.013503929    1233855.8 
   37000   0.09741659   -5.3897438    21.035728    15.674732 -0.010592132    1233874.1 
   38000  0.092932069   -5.3899907    21.041716     15.67915 -0.016200638    1233859.3 
   39000  0.096038664   -5.3900638    21.024032    15.662309 -0.017293257    1233852.6 
   40000   0.10277614    -5.389788    21.033556    15.674097 -0.013343126    1233869.4 
   41000   0.10125557   -5.3899693    21.038983    15.678894 -0.016524326    1233862.3 
   42000  0.086290501   -5.3900975    21.031184     15.66655 -0.018189515    1233849.4 
   43000  0.096456569   -5.3897762    21.025681    15.664369 -0.011917798    1233869.7 
   44000   0.10167475   -5.3898862    21.043059    15.683177 -0.012794639    1233868.2 
   45000     0.108612   -5.3900788     21.03531    15.677283 -0.014665446    1233852.2 
   46000   0.10497231   -5.3897145    21.024251    15.665514 -0.0064143638      1233870 
   47000  0.099435131   -5.3897309    21.039493    15.679105 -0.004200013    1233875.2 
   48000  0.073774301   -5.3899586     21.03793    15.669742 -0.0062125386    1233860.5 
   49000   0.10424537   -5.3896396    21.026514    15.667637 0.00026165486      1233872 
   50000   0.10303966   -5.3895623    21.030721    15.671566 0.0049822838    1233882.5 
   51000  0.094792719   -5.3898453    21.045012     15.68314 0.0037215043    1233868.9 
   52000   0.10280463   -5.3895393     21.02793    15.668728 0.0090411088    1233877.2 
   53000   0.10073984   -5.3894119    21.028275    15.668592  0.013433722    1233887.1 
   54000  0.091935801   -5.3897155    21.042258    15.679673  0.011963891    1233876.9 
   55000   0.10196438   -5.3894923    21.033906    15.674503  0.015181574    1233880.8 
   56000  0.094095965   -5.3893396    21.026526    15.664954  0.017226002    1233888.6 
   57000  0.097354555   -5.3896382     21.03695    15.676041  0.015738119    1233880.1 
   58000   0.10206341   -5.3894855    21.037033    15.677666  0.018254858    1233883.9 
   59000   0.10657137   -5.3892874    21.027487    15.669649  0.019483786      1233888 
   60000   0.09921552     -5.38962    21.031911     15.67157  0.014441687    1233879.1 
   61000   0.10298087   -5.3895716    21.037419    15.678237  0.015122111    1233882.7 
   62000   0.10355112   -5.3893401    21.032148    15.673366  0.015345622    1233886.1 
   63000  0.098205297   -5.3896758    21.026298    15.665603  0.008094343    1233874.1 
   64000   0.10537131   -5.3897103    21.040409    15.681794 0.0081157775    1233877.2 
   65000   0.10410918   -5.3894377    21.032357    15.673642 0.0088611669    1233882.9 
   66000   0.10312022   -5.3897552    21.029509    15.670185 0.00082703948    1233865.6 
   67000   0.11246897   -5.3898759    21.033292    15.676606 -0.0026064336    1233869.2 
   68000  0.088991085    -5.389587    21.040087    15.676761 -0.00096847949    1233879.1 
   69000  0.094984347   -5.3898529    21.029181    15.667358 -0.0085532709      1233860 
   70000   0.10402325   -5.3900349    21.034046    15.674708 -0.012730356    1233858.1 
   71000   0.10111598   -5.3897207    21.037698    15.677816 -0.0089488459    1233875.8 
   72000  0.099859887   -5.3899155    21.030557     15.67011 -0.014410438    1233856.9 
   73000   0.10157054    -5.390146    21.032893    15.672721  -0.01955558    1233849.2 
   74000   0.09865944   -5.3898197    21.034962    15.674257 -0.014285913    1233872.9 
   75000  0.091520502   -5.3899411     21.03667    15.673736 -0.018096544    1233858.3 
   76000  0.097934701   -5.3901612    21.028165    15.666904 -0.021327919    1233846.1 
   77000    0.1015287   -5.3898543    21.038981    15.679088 -0.015600139    1233869.7 
   78000  0.079259189   -5.3898598    21.035064    15.668594 -0.014218724    1233866.9 
   79000  0.096361523   -5.3901231    21.028757    15.667071 -0.018171817    1233846.4 
   80000   0.10416222   -5.3898204    21.035002     15.67592 -0.011748694    1233869.4 
   81000   0.10208734   -5.3897465    21.033836    15.674216 -0.0080234298    1233875.5 
   82000  0.093054544   -5.3900502    21.034936    15.672346  -0.01230446    1233849.3 
   83000  0.092625781   -5.3897387     21.02956    15.667155 -0.0039177809    1233868.7 
   84000   0.10606842   -5.3895707    21.036456    15.678186 0.0026173203    1233885.1 
   85000   0.10567321   -5.3898777    21.033271    15.674578 -0.00094571019    1233863.8 
   86000   0.10481315   -5.3896316    21.028631     15.66993 0.0049475335    1233872.2 
   87000  0.096062237    -5.389409    21.036969    15.675908  0.012202219    1233891.8 
   88000  0.098451715   -5.3897361    21.032445    15.671762 0.0082703048    1233873.3 
   89000   0.10012997   -5.3895704    21.032038    15.672016  0.011734344    1233872.2 
   90000   0.10959413   -5.3892812     21.03068     15.67374  0.019920565    1233894.6 
   91000   0.11020209   -5.3896029    21.037014    15.679932  0.017310049    1233882.9 
   92000   0.10057608   -5.3895304    21.025059    15.665208  0.016175142    1233879.1 
   93000    0.1063744   -5.3892156    21.035103    15.677279  0.023184349    1233894.2 
   94000  0.099437864   -5.3895567    21.035668    15.675456   0.01844674    1233885.2 
   95000  0.091361374   -5.3895821    21.033849    15.671228  0.015772412    1233877.4 
   96000   0.10323485   -5.3892704    21.028672    15.669866  0.019594982      1233889 
   97000  0.087523828   -5.3895704    21.036072     15.67233  0.014980577    1233883.7 
   98000  0.095914071   -5.3896829    21.033896    15.672517  0.011151646    1233876.9 
   99000  0.095887407   -5.3893896       21.025    15.663907  0.012009329    1233883.7 
  100000   0.10049101   -5.3896564    21.041851    15.681849 0.0068065271    1233874.1 
  101000  0.089414871   -5.3898452    21.033189     15.66973 0.0011794065    1233869.7 
  102000  0.081043582    -5.389549    21.029306    15.663673 0.0020009244    1233876.9 
  103000   0.10452075    -5.389748    21.029896    15.670992 -0.0029343001    1233867.9 
  104000   0.10213781   -5.3900386    21.038846    15.678948 -0.0092925757    1233861.2 
  105000  0.099033154    -5.389695    21.030359    15.669889 -0.0066344748    1233873.1 
  106000    0.1000277   -5.3898485    21.027926    15.667596  -0.01196678      1233861 
  107000  0.098480912   -5.3902305    21.044423    15.683254 -0.020474995    1233847.8 
  108000   0.12166627   -5.3898505    21.031214    15.677268  -0.01582851    1233867.4 
  109000  0.086900522   -5.3898859    21.028607    15.664366  -0.01696438    1233859.1 
  110000   0.11873284   -5.3902702    21.033742    15.678509 -0.024422372    1233843.9 
  111000   0.10987021   -5.3899409    21.038924    15.681406 -0.019296238    1233863.6 
  112000   0.11823574   -5.3898443    21.024076    15.669123 -0.016896808    1233864.2 
  113000  0.095958645   -5.3902629    21.036106     15.67416 -0.023559611    1233838.9 
  114000   0.10718538   -5.3899793    21.037581    15.679233 -0.017380472    1233858.8 
  115000  0.096177802   -5.3897679    21.027497    15.666112 -0.011611311    1233870.1 
  116000   0.10306817    -5.390149    21.030127    15.670394 -0.015651816    1233844.1 
  117000   0.11457432   -5.3899247    21.031638    15.675525 -0.0090553277    1233857.1 
  118000   0.11362135   -5.3896168    21.035064    15.678976 -0.0019679011    1233875.4 
  119000  0.095688891   -5.3899552    21.027188    15.665471 -0.0053625865      1233857 
  120000   0.11393616   -5.3898907    21.039228     15.68296 -0.0011120547    1233851.1 
  121000  0.096008425   -5.3894848    21.029025    15.667872 0.0071452095    1233880.9 
  122000   0.09719913   -5.3897688    21.030863    15.669777 0.0052175504    1233868.7 
  123000   0.10190088   -5.3897352    21.033583    15.673919 0.0096690246    1233863.1 
  124000   0.11015364   -5.3893492    21.033381    15.676538  0.018155216      1233881 
  125000  0.088952074   -5.3896025    21.029076    15.665724  0.014513538    1233877.1 
  126000   0.11197635   -5.3896442    21.035013    15.678413  0.017380154    1233873.6 
  127000  0.093914169   -5.3892902    21.036349    15.674773  0.023409162    1233884.7 
  128000  0.089106016   -5.3895268    21.025781     15.66255  0.017769396    1233879.9 
  129000   0.11015367   -5.3896031    21.035279    15.678182  0.019979743    1233879.3 
  130000  0.098013039   -5.3892528    21.033118    15.672789  0.023889659    1233891.7 
  131000  0.090641781   -5.3894873     21.02914    15.666401   0.01701488    1233877.2 
  132000    0.1202712    -5.389662    21.029758    15.675588  0.013893395    1233876.9 
  133000  0.098386342    -5.389314    21.039375    15.679095  0.018423225    1233893.9 
  134000  0.099169169   -5.3895394    21.029516    15.669241   0.01070631      1233876 
  135000   0.10098785   -5.3898033    21.029474    15.669473 0.0049850118    1233867.4 
  136000   0.10722468   -5.3894742    21.035139    15.677307  0.010055286    1233888.1 
  137000  0.097322709   -5.3896318    21.033157    15.672245 0.0038650597    1233873.1 
  138000   0.12196299   -5.3899777    21.027319    15.673332 -0.0049396795    1233855.2 
  139000    0.1001472   -5.3896824    21.034368    15.674239 -0.0024968839      1233879 
  140000   0.09092219   -5.3897496    21.038461    15.675542 -0.007164495    1233871.9 
  141000  0.098415639   -5.3901117    21.027617    15.666548 -0.016733049      1233848 
  142000   0.10822818    -5.389851    21.034015    15.676102 -0.014647799    1233866.5 
  143000   0.08664432    -5.389806    21.036248    15.672011 -0.015326333    1233871.3 
  144000   0.10176653   -5.3902049    21.029949    15.669775 -0.024213254    1233843.3 
  145000   0.09968044    -5.389979    21.031987    15.671424 -0.021461615    1233858.1 
  146000   0.10864796   -5.3898533    21.035697    15.677906 -0.018924952    1233871.1 
  147000  0.096318995   -5.3902453    21.034338    15.672517 -0.024656176      1233844 
  148000  0.097113637   -5.3900333    21.030338    15.668963 -0.019510951    1233851.4 
  149000  0.095987414   -5.3897927    21.036143    15.674676 -0.013259256    1233872.1 
  150000   0.10543477   -5.3901701     21.03547    15.676413 -0.019003533    1233851.7 
  151000   0.09218388   -5.3899719    21.026973    15.664205 -0.014326117      1233855 
  152000   0.10113546   -5.3896714     21.03429    15.674464 -0.0088404378    1233875.5 
  153000   0.10277561   -5.3899921    21.037336    15.677673  -0.01223794    1233862.1 
  154000   0.11529205   -5.3898749    21.030758    15.674906 -0.0089809772    1233860.2 
  155000   0.10255193   -5.3894914    21.029443    15.670215 0.0015764129    1233879.4 
  156000   0.10635568   -5.3897874     21.03761    15.679208  0.001759025    1233871.6 
  157000   0.10567374   -5.3897522    21.028809    15.670241 0.0054922893      1233870 
  158000   0.11456316   -5.3893697    21.031764    15.676202  0.015812904      1233883 
  159000  0.091162198   -5.3896562    21.034571    15.671816   0.01518103    1233873.8 
  160000  0.099033761   -5.3897012    21.035268    15.674792   0.01679673    1233872.8 
  161000  0.086584156   -5.3893009    21.029836    15.666086  0.022937896    1233887.3 
  162000  0.098674868   -5.3895242    21.034207    15.673802  0.021504038    1233873.8 
  163000   0.08678255   -5.3896383    21.031726    15.667697   0.01704473    1233875.3 
  164000  0.098407379   -5.3892035    21.030352    15.670188  0.022484626    1233895.2 
  165000   0.10166711   -5.3894332    21.037406    15.677974   0.01886858    1233876.5 
  166000  0.096745275   -5.3896945    21.030382    15.669237  0.012976452    1233867.7 
  167000   0.10158867   -5.3892791    21.033817    15.674516  0.020499531    1233892.2 
  168000   0.12442858   -5.3894361     21.03294    15.680223  0.020592985      1233881 
  169000  0.098167664   -5.3898598    21.032608    15.671718   0.01308881    1233857.7 
  170000   0.10177793    -5.389505    21.027051     15.66758   0.01703649    1233880.7 
  171000   0.10486051   -5.3895523    21.037223    15.678615  0.014299415    1233879.3 
  172000   0.10280788   -5.3900169    21.036568     15.67689 0.0015589665    1233852.2 
  173000  0.079759904    -5.389688    21.027954    15.661803 -0.00010330764    1233869.2 
  174000   0.10559004   -5.3895956    21.030989    15.672553 -0.0040405893    1233878.7 
  175000   0.11538801   -5.3900795    21.040617    15.684588 -0.017161245    1233854.1 
  176000   0.10430416   -5.3898067    21.026245    15.667218 -0.016703287    1233864.6 
  177000   0.11184174   -5.3896847    21.028952    15.672272 -0.016386078    1233873.5 
  178000  0.096767666   -5.3902286    21.045293    15.683621 -0.024759142    1233849.6 
  179000  0.098190989   -5.3900489    21.030309    15.669236 -0.017903907    1233852.8 
  180000    0.1140709   -5.3898681    21.030647    15.674441 -0.013030205    1233861.1 
  181000   0.10303725    -5.390286    21.034267    15.674387 -0.016548575    1233847.6 
  182000   0.10087145   -5.3902059    21.040809    15.680371 -0.017143166    1233848.6 
  183000  0.096018767   -5.3898258    21.022713    15.661222 -0.012568441    1233864.4 
  184000  0.096300195   -5.3901709    21.037976    15.676224 -0.024243207    1233851.1 
  185000   0.08035949   -5.3900658    21.040994    15.674642 -0.026636408    1233857.2 
  186000  0.090231903   -5.3896382    21.030204    15.667193 -0.021865121    1233871.8 
  187000  0.097245661   -5.3898993    21.027481    15.666279  -0.02409708    1233863.1 
  188000   0.10507314   -5.3899682    21.039824    15.680863 -0.019124497      1233864 
  189000  0.083355782   -5.3895695      21.0331    15.668129 -0.0042943977      1233877 
  190000  0.094564728   -5.3898549    21.028066    15.666117 0.0017648333    1233861.2 
  191000  0.091287051   -5.3900052    21.037201    15.674135  0.009295474    1233860.2 
  192000  0.095244283   -5.3895372    21.038175    15.676744  0.022794521    1233881.2 
  193000  0.094622017   -5.3897042    21.026567    15.664786  0.020024336    1233869.4 
  194000  0.086790118   -5.3898206    21.032331    15.668123  0.015509241    1233866.4 
  195000   0.10967984   -5.3892451    21.037393    15.680514  0.019213318    1233896.3 
  196000  0.096052996   -5.3893114    21.031339    15.670372 0.0083134409      1233887 
  197000  0.092915401   -5.3895626    21.031491    15.669348 -0.00012092913    1233873.8 
  198000   0.10138263    -5.389124    21.034381    15.675175  0.009058396    1233900.1 
  199000  0.098829289   -5.3891931    21.034742    15.674714   0.01457021    1233896.1 
  200000   0.10064535   -5.3896834    21.029537    15.669554  0.017804373    1233868.5 
  201000   0.11052547    -5.389446    21.036115    15.679285  0.036705191    1233877.5 
  202000    0.1085378   -5.3894657    21.030494    15.673058  0.043301829    1233882.6 
  203000  0.089136006   -5.3899545    21.037618    15.673967  0.037306752    1233854.9 
  204000   0.10108909   -5.3896835    21.030781    15.670929  0.034084089    1233867.3 
  205000   0.10798843   -5.3894582    21.032497    15.674906  0.022632131    1233880.7 
  206000   0.11049657   -5.3897635     21.03165    15.674494 -0.0015195793    1233869.4 
  207000  0.099625443   -5.3895112    21.037179    15.677068 -0.015020826    1233876.2 
  208000  0.099760006   -5.3892768    21.026102    15.666265 -0.024242088    1233888.7 
  209000   0.10087843   -5.3897451      21.0374    15.677424 -0.033764217    1233867.8 
  210000    0.1023569   -5.3897393    21.032344     15.67281 -0.023422519    1233871.6 
  211000  0.091501426   -5.3897201    21.035902    15.673184 -0.0063907961      1233867 
  212000   0.09212269   -5.3902713    21.026155    15.663069 0.0043365314    1233842.9 
  213000   0.11409664   -5.3904302    21.043615    15.686855  0.013579368    1233839.3 
  214000   0.10419573   -5.3901141    21.030168    15.670802  0.022035424    1233852.2 
  215000  0.086276811   -5.3904083    21.028806    15.663858 0.0044080574    1233833.7 
  216000    0.1136025   -5.3902863    21.037257    15.680495 -0.019645046    1233845.1 
  217000  0.097264116   -5.3896708    21.036627    15.675658 -0.038158654    1233877.5 
  218000  0.088527572    -5.389776    21.027908    15.664256  -0.06311767    1233866.5 
  219000   0.10422553   -5.3897651    21.030461    15.671453 -0.074236377    1233868.5 
  220000   0.10415271   -5.3893884    21.044682    15.686029 -0.060228758    1233891.8 
  221000   0.10230821   -5.3898138    21.026524    15.666901 -0.039114623    1233866.4 
  222000   0.10756263   -5.3902398    21.030235    15.671737 -0.0091226564      1233843 
  223000  0.094986517   -5.3900535    21.036661    15.674638  0.032294271    1233859.3 
  224000   0.09566361   -5.3903995    21.037058    15.674889    0.0510351    1233840.7 
  225000   0.10815542   -5.3905622    21.025457    15.666812  0.052131289    1233827.3 
  226000   0.09325634   -5.3899043     21.03604    15.673655  0.043341548    1233861.9 
  227000   0.10879914   -5.3896158    21.038937    15.681428   0.01070201    1233879.1 
  228000  0.093639842   -5.3894826    21.022756    15.660906 -0.033501257    1233882.5 
  229000   0.10295427   -5.3887773    21.032506     15.67411 -0.054363069    1233914.1 
  230000  0.082308746   -5.3886768    21.036997     15.67261 -0.062458627    1233923.9 
  231000   0.11382671   -5.3891141    21.028629    15.673105 -0.048952319    1233900.4 
  232000   0.10714116   -5.3891148    21.027583    15.670085 -0.001612863    1233896.1 
  233000   0.10347846   -5.3895165    21.038411    15.679431   0.05520436    1233876.1 
  234000   0.10718002   -5.3903011    21.030908    15.672236  0.095116403    1233843.9 
  235000  0.096499741    -5.390276    21.029766    15.667967   0.12350557    1233841.5 
  236000    0.1069762    -5.390114    21.034667    15.676122   0.12007169    1233845.4 
  237000   0.10815627   -5.3901657    21.035676    15.677428  0.073159967    1233846.1 
  238000  0.089311712   -5.3893758    21.030573    15.667553  0.014164064    1233887.3 
  239000  0.097864046   -5.3886812    21.030874    15.671072 -0.047626526    1233915.2 
  240000   0.10767635    -5.388721    21.032156    15.675211  -0.10109372      1233912 
  241000   0.10539897    -5.388476     21.02792    15.670547  -0.11116007    1233933.3 
  242000  0.098663104   -5.3885852    21.035395    15.675926 -0.077732929    1233925.7 
  243000   0.10720418    -5.389689     21.03118    15.673127 -0.025144562    1233866.9 
  244000  0.096652087   -5.3903512    21.036102    15.674273  0.050456908      1233836 
  245000   0.10329214    -5.390656    21.032186    15.672012   0.11769175    1233828.5 
  246000  0.097093693   -5.3913942    21.037024    15.674282   0.13512051    1233787.4 
  247000   0.10632814   -5.3912188    21.026869    15.667028   0.11136914      1233795 
  248000  0.087765116   -5.3902953    21.036982    15.672587  0.049430016    1233846.6 
  249000  0.095771864   -5.3898735    21.034275    15.672664 -0.048290104    1233865.6 
  250000   0.09198565   -5.3892096    21.030948    15.668884  -0.13685745    1233890.7 
  251000   0.10856278   -5.3883314    21.030697    15.674403   -0.1818112    1233937.8 
  252000   0.10204846   -5.3886573     21.03666    15.678118  -0.18485994    1233928.3 
  253000    0.1028855   -5.3893153    21.027149    15.668195  -0.13006447    1233890.4 
  254000  0.098443469   -5.3897504    21.031338    15.670638 -0.031580541    1233867.4 
  255000   0.10802307   -5.3908655    21.036782    15.677794  0.065056677    1233819.8 
  256000  0.078613118    -5.391735    21.037763    15.669227   0.13501041    1233773.4 
  257000   0.10054742    -5.391442    21.029077    15.667307   0.16398537    1233783.3 
  258000   0.11004906   -5.3911447     21.03685    15.678181   0.12566703    1233804.6 
  259000   0.10147644   -5.3906122    21.034331    15.673665  0.037766051      1233833 
  260000  0.096631903   -5.3891636    21.026945    15.666298 -0.056796605    1233895.7 
  261000   0.10897649   -5.3883413    21.031229    15.675047   -0.1411937    1233936.2 
  262000  0.096615806   -5.3883006     21.03804    15.678251   -0.1835183    1233943.3 
  263000  0.093048515   -5.3880268    21.028608     15.66804  -0.15473107    1233952.9 
  264000   0.10332359   -5.3885879    21.027862    15.669765 -0.076094601    1233921.6 
  265000  0.098686183   -5.3898985    21.034516     15.67374   0.02344252    1233863.9 
  266000   0.10327508    -5.390374    21.030255    15.670357   0.12813656      1233842 
  267000   0.12002341   -5.3907458    21.030548    15.675222   0.19160024    1233816.7 
  268000   0.10014101   -5.3912593    21.039151    15.677444   0.18975383    1233789.6 
  269000  0.091821301    -5.390466    21.034362    15.670993   0.14197958    1233835.3 
  270000   0.10092596   -5.3894033    21.028415    15.668795  0.058218522    1233886.3 
  271000  0.099074152   -5.3890619    21.034245     15.67442 -0.041440129    1233895.3 
  272000   0.10120894   -5.3882528    21.030526     15.67214  -0.10599357    1233939.6 
  273000  0.092654891   -5.3877815    21.026035    15.665596  -0.12244424    1233966.5 
  274000   0.10379967   -5.3885863    21.038567    15.680612 -0.098512823    1233920.5 
  275000   0.10706161   -5.3891742    21.031792    15.674212 -0.036696097    1233890.6 
  276000   0.08579463   -5.3894661    21.030626    15.666478  0.035521423      1233884 
  277000  0.096138278   -5.3903707    21.032521     15.67052  0.077156237    1233841.3 
  278000  0.095488129   -5.3906506    21.036444    15.673972  0.089687056    1233821.2 
  279000    0.1142031   -5.3901312     21.02714     15.67071   0.07924625      1233848 
  280000  0.092671685   -5.3902436    21.033489    15.670593  0.036999554    1233848.3 
  281000   0.09477222   -5.3901361    21.040116    15.677947 -0.0082222578    1233850.5 
  282000  0.099102585     -5.38942    21.025948    15.665774 -0.037037556    1233883.1 
  283000  0.096839868   -5.3895517    21.029414     15.66844  -0.06261819    1233881.7 
  284000  0.099416356   -5.3898023    21.035831    15.675366   -0.0712676    1233871.3 
  285000  0.096318347   -5.3894865    21.028368    15.667305  -0.05316604    1233879.9 
  286000  0.099366541   -5.3899177     21.03046    15.669866 -0.036430386    1233858.8 
  287000  0.086789264   -5.3904615    21.037526    15.672676 -0.018030711    1233839.3 
  288000  0.094270362   -5.3901949    21.034933    15.672557 0.0076250535    1233848.6 
  289000  0.094224197   -5.3903715    21.028879    15.666313  0.015019736    1233836.9 
  290000  0.092234307   -5.3906443    21.032212    15.668786 0.0075699634    1233829.3 
  291000   0.11418088   -5.3900785    21.037575    15.681191 -0.0014117531    1233856.6 
  292000  0.091379103   -5.3898417    21.026922    15.664046 -0.018426866    1233861.6 
  293000   0.10227419   -5.3900782    21.035981    15.676083 -0.044496494    1233851.5 
  294000  0.098529184   -5.3894903    21.034289    15.673875 -0.046242235    1233885.7 
  295000  0.095343694   -5.3893381    21.036275    15.675072 -0.043211969    1233888.5 
  296000  0.086566196   -5.3898073    21.027312     15.66305 -0.033870696    1233864.2 
  297000   0.11998655   -5.3896319     21.03702    15.682796 -0.0040377438    1233874.1 
  298000  0.094537113   -5.3895665    21.030176    15.668507  0.024981347    1233879.2 
  299000  0.096952688   -5.3901925    21.035635    15.674053   0.03907976    1233841.3 
  300000  0.096796928   -5.3899906    21.033048    15.671622  0.054040294    1233853.8 
  301000   0.10429331   -5.3895679     21.03301    15.674219  0.057811898    1233878.7 
  302000    0.1032765   -5.3898301     21.03387    15.674517  0.035469325    1233865.1 
  303000   0.10681075   -5.3894581    21.032455    15.674517  0.015521824    1233876.9 
  304000  0.097876337   -5.3888189    21.031945     15.67201 -0.0034852019    1233910.6 
  305000   0.10467996   -5.3890403    21.030177    15.672028 -0.026426734    1233904.6 
  306000   0.09677869    -5.389023    21.038278    15.677814 -0.028310555    1233902.1 
  307000  0.095107948   -5.3888065    21.027645    15.666905 -0.0092164953    1233912.9 
  308000  0.098872723   -5.3894592    21.032503    15.672221  0.016855314    1233883.7 
  309000   0.10380064   -5.3899064    21.036957    15.677682   0.05659273    1233863.7 
  310000   0.10909292   -5.3898363    21.032357    15.674714  0.095626281    1233862.6 
  311000  0.095660629    -5.390374    21.029778    15.667633   0.10090526    1233836.9 
  312000   0.10307051   -5.3904502    21.039301    15.679267  0.083278228    1233838.4 
  313000  0.099782048   -5.3896678    21.035605    15.675383  0.042483526    1233876.2 
  314000   0.11097151   -5.3894361    21.030737    15.674049 -0.028764092    1233882.6 
  315000    0.1053989    -5.389164    21.031495    15.673434 -0.096123299    1233899.1 
  316000   0.10501319   -5.3884097    21.040344    15.682923  -0.12688488    1233938.9 
  317000  0.099201554   -5.3887257    21.025567    15.666116   -0.1294568    1233918.2 
  318000   0.10573881   -5.3895402    21.028987    15.670651 -0.090638315      1233879 
  319000   0.10499958   -5.3898771    21.037967    15.679076 -0.010058082    1233868.7 
  320000  0.094053364   -5.3907624     21.03254    15.669532   0.06750238    1233821.7 
  321000  0.087586526   -5.3916631      21.0311    15.665283      0.11642    1233772.7 
  322000   0.10192327   -5.3913901    21.038452    15.677139   0.13092733    1233792.2 
  323000  0.094752194   -5.3909964    21.038804    15.675769     0.088405    1233811.8 
  324000   0.10022289   -5.3906266    21.025762    15.664711 0.00013607203      1233825 
  325000   0.10243131   -5.3894281    21.033934    15.674733 -0.091274913    1233884.1 
  326000  0.094009668   -5.3885898    21.039013    15.678165  -0.16583211    1233929.6 
  327000   0.10577421   -5.3887061    21.029189    15.671697  -0.20107674    1233919.3 
  328000  0.097961578   -5.3886298     21.03065    15.670928  -0.16671339    1233919.1 
  329000   0.10264471   -5.3890827     21.03993    15.681138 -0.082855361    1233900.4 
  330000  0.093703461   -5.3903708    21.029655    15.666936  0.016358603    1233840.9 
  331000   0.10815495   -5.3910153     21.03335    15.674251   0.11591933    1233803.3 
  332000  0.092816055   -5.3911905    21.038018    15.674218   0.17806946    1233794.4 
  333000  0.093555144   -5.3914964    21.036511    15.672622   0.17139385    1233784.3 
  334000  0.099480163   -5.3907261     21.02986     15.66849   0.11765621    1233820.5 
  335000  0.099953535   -5.3894634    21.037359    15.677392  0.031759358    1233874.2 
  336000   0.10423548   -5.3888591    21.027392    15.669292 -0.072855316    1233910.2 
  337000   0.10064907    -5.388087    21.030945     15.67256  -0.14024535    1233952.6 
  338000  0.098005592   -5.3875119    21.031178    15.672587  -0.15027262    1233977.2 
  339000   0.08182305   -5.3882739    21.035411    15.671283  -0.11653099    1233934.4 
  340000  0.098919145   -5.3890262    21.026562    15.666727 -0.030921035    1233904.9 
  341000  0.092062309   -5.3894706    21.040106    15.677803  0.079674803    1233884.4 
  342000   0.10230396   -5.3905946     21.03102    15.670615   0.15408141    1233825.8 
  343000  0.098839561   -5.3910835    21.028877    15.666961   0.18606815    1233804.5 
  344000   0.10444395   -5.3904389    21.038164    15.678547   0.17708404    1233841.5 
  345000  0.087298129   -5.3902103     21.03556    15.671111   0.10175943    1233847.2 
  346000  0.099248684   -5.3896871     21.03095    15.670551 0.0068961453    1233867.4 
  347000  0.095898888   -5.3885053    21.033975     15.67377 -0.066086962    1233933.1 
  348000   0.10660211   -5.3883264    21.036562    15.679694  -0.11664024    1233943.5 
  349000   0.10349462   -5.3887324    21.025529    15.667338  -0.12673625      1233917 
  350000   0.10029688   -5.3887421    21.030296    15.671152 -0.082589934    1233919.4 
  351000   0.11435745   -5.3894838    21.038784    15.683047 -0.024693899    1233888.1 
  352000  0.097712482   -5.3905289    21.035544     15.67385  0.024305183    1233829.8 
  353000  0.090981958   -5.3905148    21.029364    15.665698  0.067976131    1233829.3 
  354000  0.098998733   -5.3906451    21.039666    15.678236  0.072647056    1233830.2 
  355000   0.11244126   -5.3909289    21.032232    15.674484  0.043121344    1233815.6 
  356000  0.092510573   -5.3902546    21.029275     15.66632 0.0082613435    1233841.5 
  357000  0.099928691   -5.3898301    21.036584    15.676242 -0.034445052      1233865 
  358000  0.095718484    -5.390018    21.035939    15.674167  -0.07516626    1233858.5 
  359000  0.097021901   -5.3895736     21.03252    15.671578 -0.084639635    1233874.2 
  360000  0.094293286   -5.3894302    21.030113    15.668509   -0.0747165    1233880.7 
  361000  0.098993155   -5.3900632    21.032937    15.672087 -0.060289892    1233855.4 
  362000  0.093235563   -5.3900302    21.030957    15.668441 -0.025837704    1233856.5 
  363000  0.092057635   -5.3900186    21.032582    15.669729 0.0065670559    1233851.1 
  364000   0.11092503   -5.3906709    21.035987     15.67805  0.018352981    1233818.1 
  365000  0.086064152   -5.3904196     21.03387    15.668848  0.029715838    1233836.7 
  366000  0.095155852   -5.3899113    21.031207    15.669376  0.030481349    1233859.9 
  367000   0.11234957   -5.3901616    21.034294    15.677287 0.0063468245    1233842.8 
  368000  0.095590169   -5.3897452     21.02664    15.665103 -0.011103411    1233868.7 
  369000  0.097507232   -5.3890542    21.034205    15.673925  -0.01968461    1233904.2 
  370000  0.096002927   -5.3893667     21.03317    15.672134 -0.032550659    1233883.9 
  371000  0.082340996   -5.3894103    21.033753    15.668641 -0.027400217    1233879.8 
  372000   0.10478106   -5.3889779    21.026029    15.667972 0.0011427768    1233909.5 
  373000    0.1088194   -5.3894664    21.041816    15.684462  0.025878944    1233885.7 
  374000  0.088936558   -5.3898457    21.024093    15.660492  0.044023506      1233864 
  375000   0.10556735   -5.3894429    21.031574    15.673284   0.07224141      1233883 
  376000   0.10548737   -5.3897187    21.034362    15.675773  0.072814528    1233874.4 
  377000  0.097259449    -5.389906    21.035686    15.674481  0.056113622    1233861.5 
  378000  0.092668061   -5.3892538    21.025239    15.663331  0.036894908    1233892.5 
  379000   0.11035364   -5.3891028    21.031762    15.675225 0.0090479464    1233905.8 
  380000  0.094975978   -5.3892542    21.039616    15.678389 -0.023630852      1233898 
  381000   0.10088674   -5.3887347    21.022685    15.663722 -0.035793187    1233917.5 
  382000    0.1152461   -5.3888676    21.036284    15.681426 -0.034582583    1233910.6 
  383000    0.1073584    -5.389583    21.037199    15.679297 -0.021538055    1233881.1 
  384000    0.1030947    -5.389597    21.035132    15.675958  0.020764324    1233877.1 
  385000   0.10260084   -5.3901088    21.024941     15.66511  0.065175312    1233851.7 
  386000   0.12144569   -5.3910361    21.039256    15.684058  0.093850732    1233808.2 
  387000   0.10060019   -5.3907641    21.030264    15.669187   0.10713951    1233821.6 
  388000   0.10559327   -5.3904736    21.031807    15.672494  0.072732596    1233828.6 
  389000  0.094093436   -5.3904007    21.033295    15.670661 -0.0097132886    1233833.5 
  390000     0.100553   -5.3893313    21.035672    15.676013 -0.096437095    1233890.5 
  391000  0.095823408   -5.3884732    21.028404    15.668208  -0.16645001    1233931.8 
  392000   0.13231454   -5.3888545    21.029679    15.679871  -0.20515517    1233906.8 
  393000  0.095572594   -5.3889057    21.035174    15.674472   -0.1697092    1233905.3 
  394000       0.1177   -5.3893073    21.029048    15.674474   -0.0818699    1233891.2 
  395000  0.097937401   -5.3908659    21.035868    15.673903  0.014903033    1233810.8 
  396000  0.092799566   -5.3915882    21.033795    15.669592   0.11282568    1233774.3 
  397000   0.10086812   -5.3915778    21.034005    15.672193   0.17003199    1233781.2 
  398000   0.09750758   -5.3918692     21.03436    15.671266   0.15280771    1233768.8 
  399000  0.095435378    -5.391166    21.037042    15.674039   0.08208832    1233795.5 
  400000   0.10771393   -5.3896087    21.027095    15.669273 -0.014706863    1233872.5 
  401000   0.11043027   -5.3889813    21.037632    15.681239  -0.12460032    1233909.9 
  402000  0.092604929   -5.3883736    21.033015    15.671969  -0.19171747    1233937.7 
  403000  0.097379989   -5.3877324    21.023943    15.664947  -0.18794863    1233965.7 
  404000  0.094922799   -5.3884646    21.032807    15.672354  -0.13376887    1233933.9 
  405000   0.11721372   -5.3894646    21.032578    15.677703 -0.032193057    1233887.9 
  406000  0.080830329   -5.3899254    21.031479    15.665406  0.084967718    1233857.3 
  407000    0.1147757   -5.3908255    21.031202    15.674246   0.16898663    1233814.8 
  408000  0.096023596   -5.3913453    21.042771    15.679762   0.19786449    1233797.5 
  409000  0.086632072   -5.3905389    21.030695    15.665721   0.17579627      1233834 
  410000  0.090596809   -5.3899743    21.028967    15.665728  0.098231104    1233855.6 
  411000   0.10284005   -5.3893927    21.037086    15.678042 0.0024758199    1233888.1 
  412000   0.11133508   -5.3880995    21.029631    15.674386 -0.071853247    1233952.7 
  413000   0.10031177    -5.387815    21.029004    15.670791  -0.11864494    1233959.1 
  414000   0.10032985   -5.3883628    21.030783    15.672027  -0.11939489      1233934 
  415000  0.093073841   -5.3884003    21.036486    15.675552 -0.061299961    1233938.2 
  416000   0.11204303   -5.3891113    21.025073    15.669026  0.012431935    1233902.6 
  417000  0.088421178   -5.3904157    21.038725    15.674402  0.076141602    1233828.7 
  418000   0.11066833   -5.3904981    21.030467    15.672627   0.12929661    1233829.8 
  419000   0.11946407   -5.3904495    21.031874    15.676679   0.13710527    1233836.5 
  420000  0.097819746   -5.3908363    21.034838    15.672868  0.093095066    1233812.9 
  421000  0.097554333   -5.3901251    21.032965    15.671628   0.03491621    1233846.2 
  422000   0.11155321   -5.3893074     21.02844    15.672052 -0.027721253      1233892 
  423000  0.098195648     -5.38946    21.034052     15.67357 -0.089601506    1233884.5 
  424000    0.1029974   -5.3891829    21.036765    15.677977   -0.1120612      1233890 
  425000  0.087650343   -5.3889406    21.024969    15.661895 -0.097071722    1233906.1 
  426000   0.11453564   -5.3898629    21.036721    15.680658 -0.074810876    1233866.6 
  427000  0.099470787   -5.3902326    21.032346    15.671467  -0.02647533    1233847.5 
  428000  0.085612412   -5.3902773    21.033558    15.668545  0.020457535    1233839.1 
  429000  0.095426054   -5.3908996    21.026071    15.663331  0.040198039    1233815.3 
  430000   0.10802412   -5.3910492    21.046571      15.6874  0.034790426    1233809.3 
  431000   0.11577648   -5.3902738     21.02724    15.671132  0.025917832    1233842.2 
  432000   0.10121255   -5.3903612    21.031663    15.671169 -0.015348744    1233838.2 
  433000   0.10938319   -5.3901138    21.033039    15.675204 -0.050828164    1233856.7 
  434000  0.088670026   -5.3893236    21.033899    15.670742 -0.065507263    1233891.7 
  435000  0.097499859   -5.3895478     21.03073    15.669955 -0.074758345    1233874.6 
  436000   0.10736468    -5.389787    21.031775    15.673671 -0.062622578    1233867.6 
  437000   0.11009183   -5.3893583    21.037625    15.680755 -0.024733025    1233890.3 
  438000  0.093017716   -5.3898141    21.026911    15.664547  0.003442989    1233864.8 
  439000  0.092129236   -5.3903205    21.035429    15.672296  0.025311235    1233837.8 
  440000   0.10332451   -5.3897833      21.0322    15.672908  0.050348586    1233869.8 
  441000  0.090431116    -5.389833    21.037175    15.674028  0.049502787    1233864.7 
  442000   0.10338257   -5.3900725     21.03315    15.673585   0.03441526    1233847.8 
  443000   0.10622609   -5.3893129    21.033561    15.675595  0.027865426      1233886 
  444000   0.10928123   -5.3890841    21.028708    15.671873  0.013518597    1233903.3 
  445000  0.094326528   -5.3894524    21.034557    15.672941 -0.0037154744      1233883 
  446000   0.09160326   -5.3890124    21.030557    15.668577  0.001735118    1233901.1 
  447000  0.088683219   -5.3889527      21.0314    15.668617  0.010175956      1233907 
  448000  0.086283757   -5.3895416    21.035346    15.671267  0.016634374    1233880.4 
  449000  0.085086299    -5.389344    21.035218    15.670983  0.034947164    1233885.6 
  450000   0.10946068   -5.3892479     21.02732    15.670374  0.046648771      1233891 
  451000   0.10257934   -5.3898182    21.033118    15.673571  0.040436966    1233869.8 
  452000   0.10217221    -5.389564    21.039993     15.68058  0.039921287      1233882 
  453000  0.085666448   -5.3893436    21.026339    15.662275  0.028313684    1233888.3 
  454000  0.088530239   -5.3898211    21.038665    15.674969 0.0074195779    1233863.2 
  455000   0.12084868   -5.3895791    21.034441    15.680524 0.0002114486    1233881.4 
  456000  0.091941928   -5.3892626    21.035543    15.673412 -0.0053206544    1233892.4 
  457000   0.10800577   -5.3898321    21.023505    15.665545 -0.018407587    1233864.2 
  458000   0.09253506   -5.3898929    21.038283    15.675697 -0.020017688    1233866.5 
  459000   0.09466292   -5.3895734    21.035809    15.674171 -0.011236986    1233881.4 
  460000  0.084665784   -5.3901757    21.027822    15.662632 -0.016752414    1233845.6 
  461000   0.11197189   -5.3904112    21.043473    15.686105 -0.019495599    1233833.4 
  462000  0.098319421   -5.3898625    21.033919     15.67307 -0.0090205534    1233867.1 
  463000   0.11513856   -5.3903141    21.029882    15.673545  -0.02042752    1233840.9 
  464000  0.092382989   -5.3904384    21.030143    15.666966 -0.028047527    1233832.2 
  465000   0.10035939   -5.3898989    21.040673     15.68039 -0.028918489    1233861.4 
  466000  0.093787202   -5.3901387    21.031523    15.669061 -0.036361428    1233850.9 
  467000   0.10219677   -5.3904617    21.039872    15.679568 -0.044880883    1233826.4 
  468000  0.097287375   -5.3898118    21.030019    15.668917 -0.029357498    1233861.9 
  469000  0.092663424   -5.3899889    21.033024    15.670381 -0.027370736    1233859.2 
  470000  0.097546692    -5.390288    21.027463    15.665961 -0.023719651    1233844.4 
  471000    0.0882684    -5.389852    21.038649    15.674845  -0.01126889    1233856.3 
  472000  0.087561506   -5.3898673    21.030879    15.666851 -0.0051982816    1233860.5 
  473000  0.090779159   -5.3902046    21.036559    15.673143 -0.0069305781    1233848.4 
  474000  0.096202467   -5.3896298    21.035497    15.674256 0.0057699232    1233872.9 
  475000  0.098747968    -5.389542    21.026311    15.665909 0.0079561227    1233877.7 
  476000   0.10165309   -5.3898867    21.033568    15.673679 0.0048285937    1233865.3 
  477000  0.093127568   -5.3893798     21.03131    15.669412  0.014309718    1233891.2 
  478000  0.080383893   -5.3892551    21.040579    15.675045  0.018345638    1233887.1 
  479000   0.09886561   -5.3896959    21.026895    15.666374  0.013365048    1233871.1 
  480000   0.10289211   -5.3892274    21.043343    15.684479  0.028976156    1233900.3 
  481000   0.10464097    -5.389046    21.029035    15.670868  0.033585641    1233906.1 
  482000  0.088234988    -5.389603    21.025921    15.662356  0.024968243    1233875.6 
  483000   0.10701846   -5.3892839    21.032605    15.674902  0.035031172    1233895.9 
  484000  0.077050397   -5.3890373    21.035968    15.669668  0.035807416    1233906.6 
  485000   0.10416826   -5.3896071    21.030542    15.671675   0.02510492    1233871.4 
  486000  0.088468928   -5.3894519    21.034614     15.67127  0.024855766    1233883.3 
  487000   0.11042318   -5.3890201    21.032819    15.676385  0.030823481    1233909.9 
  488000   0.10357737   -5.3896318    21.028889    15.669823    0.0149833    1233876.3 
  489000    0.1033149    -5.389671    21.033784    15.674602  0.011488611    1233867.7 
  490000   0.10473403   -5.3892564    21.033168    15.674819  0.013888659    1233892.9 
  491000   0.10211521   -5.3898222    21.038947    15.679259 0.0010897065    1233865.2 
  492000  0.083160726   -5.3899726    21.032582     15.66715 -0.004182234    1233854.2 
  493000     0.095296   -5.3895589    21.031437        15.67 0.00061453942    1233875.1 
  494000   0.10164383   -5.3899851    21.030242    15.670252 -0.0090980712      1233860 
  495000  0.097537253   -5.3902255    21.032536    15.671094 -0.016946854      1233846 
  496000   0.08746317   -5.3897991    21.036302    15.672313 -0.014491812    1233860.1 
  497000  0.081198454   -5.3901278     21.03207    15.665904  -0.02452161    1233847.2 
  498000  0.091733224   -5.3904143    21.038003    15.674659 -0.033945298    1233838.2 
  499000   0.08902816   -5.3898907    21.037284    15.673665 -0.028253016    1233862.6 
  500000   0.10736013   -5.3900916    21.025966    15.667556 -0.031227989    1233850.7 
  501000   0.10786822   -5.3904425    21.030137    15.671526 -0.037648761    1233837.1 
  502000  0.099726418   -5.3899254    21.039512    15.679016 -0.028226645    1233862.5 
  503000  0.097542279   -5.3900742    21.034576    15.673287 -0.027958723      1233850 
  504000  0.079239268    -5.390433     21.03151     15.66446 -0.027889176    1233833.5 
  505000   0.10527222   -5.3899274    21.040342     15.68148 -0.017405993    1233865.6 
  506000    0.0917429   -5.3898604    21.033734    15.670947 -0.011206676    1233866.5 
  507000  0.091838965   -5.3902393    21.024892    15.661755 -0.014386797    1233843.9 
  508000   0.11618263   -5.3897349    21.037919     15.68247 -0.0065546224    1233870.3 
  509000   0.10403975    -5.389511    21.035433    15.676624 -0.0027814784    1233882.3 
  510000   0.10647439   -5.3900007     21.03472     15.67614 -0.010833217    1233854.7 
  511000  0.099988525   -5.3895416    21.029334    15.669299 0.00084560698    1233877.6 
  512000  0.086869353   -5.3892358    21.035904    15.672303  0.012036035    1233897.6 
  513000   0.11187105   -5.3897317    21.030372    15.673654  0.012941952    1233870.8 
  514000  0.086010442   -5.3894977     21.03137    15.667254  0.023728882    1233877.2 
  515000   0.10594835   -5.3891299    21.035897    15.678032  0.038971984    1233894.4 
  516000   0.10181754    -5.389662    21.035275    15.675659  0.032640056    1233874.3 
  517000  0.099750381   -5.3894847    21.030388     15.67034  0.035697483    1233881.5 
  518000  0.081688952   -5.3891001    21.031145    15.666151  0.038347028      1233897 
  519000   0.10014891   -5.3894851    21.030444    15.670513  0.027706298    1233881.2 
  520000  0.096001916    -5.389379    21.032288    15.671239  0.022893153    1233887.8 
  521000  0.091893511   -5.3889545    21.034495    15.672659  0.023929871    1233903.9 
  522000   0.08487922   -5.3894539    21.029553    15.665146  0.010920406    1233879.9 
  523000   0.10367354   -5.3895531    21.036098    15.677139  0.011262843    1233881.6 
  524000   0.09415382   -5.3891469    21.032693    15.671331  0.021567199    1233902.2 
  525000  0.099116329   -5.3896986    21.026943    15.666494  0.015947177    1233869.7 
  526000   0.12634705   -5.3899613     21.03018    15.677504  0.015954277    1233856.7 
  527000    0.1054397   -5.3894923     21.03667    15.678293  0.021620745    1233885.3 
  528000  0.095574879   -5.3899122    21.032208      15.6705 0.0078866822    1233860.4 
  529000  0.089397448   -5.3901969     21.02909    15.665274 -0.0091351297    1233846.2 
  530000  0.090648867   -5.3896286    21.035128     15.67225  -0.01364384    1233880.1 
  531000  0.094726532   -5.3898364    21.035838    15.673955 -0.031009811    1233868.8 
  532000   0.10008341   -5.3901739    21.026176    15.665537 -0.044998387    1233845.3 
  533000   0.10202318   -5.3897343    21.037174    15.677547 -0.042289967    1233866.6 
  534000  0.089164778   -5.3899069     21.03295    15.669356 -0.038602371    1233864.4 
  535000  0.085040555   -5.3904642    21.029312    15.663943 -0.035204442    1233833.3 
  536000  0.090875886   -5.3901752    21.031136    15.667778 -0.016391752    1233845.8 
  537000  0.096358528   -5.3902408    21.031838    15.670033 -0.0037029886    1233846.7 
  538000  0.089406065   -5.3907506    21.035026    15.670659 -0.006889175    1233821.2 
  539000    0.1202418   -5.3902534    21.028307    15.673537 -0.0030734804    1233839.1 
  540000  0.097472803   -5.3900029    21.039284    15.678046 -0.014792188    1233850.3 
  541000  0.091078463   -5.3902197    21.028198    15.664856 -0.036170491      1233848 
  542000   0.10054391   -5.3896963    21.033861    15.673835 -0.046491956    1233872.3 
  543000  0.098410392   -5.3893115    21.031098    15.670828 -0.046721508    1233886.8 
  544000   0.12634293   -5.3898098    21.032429    15.679903 -0.047955065    1233863.6 
  545000   0.11341205   -5.3895414    21.029262    15.673189 -0.019616597    1233880.8 
  546000  0.095148554   -5.3893823    21.041658    15.680354  0.015806639    1233883.6 
  547000   0.10578206   -5.3901279    21.026908    15.667996  0.036005993    1233848.5 
  548000  0.094517321   -5.3900401    21.033562    15.671414  0.062795435    1233858.8 
  549000   0.08305931   -5.3895882     21.03699    15.671912   0.07793429    1233882.2 
  550000  0.082489657   -5.3899417     21.02838    15.662781    0.0576679    1233857.4 
  551000   0.11792883   -5.3895405    21.031912    15.677172  0.035799394    1233876.9 
  552000   0.12198683   -5.3886241    21.030573    15.677947  0.013577489      1233928 
  553000   0.10475317   -5.3888741    21.038081    15.680119 -0.024834171    1233912.7 
  554000  0.096161915    -5.388854    21.021916     15.66144 -0.042943212      1233913 
  555000  0.087831979   -5.3883719    21.036408    15.673955 -0.021822465    1233940.5 
  556000   0.10668116   -5.3890819    21.031698    15.674098 0.0031574124    1233905.3 
  557000  0.095611861    -5.389756    21.032381     15.67084  0.040498252    1233864.3 
  558000   0.11493118   -5.3895938     21.03106    15.675383  0.092235571    1233875.2 
  559000   0.11180585   -5.3902286    21.035657    15.678422   0.10976154    1233848.8 
  560000   0.10037658   -5.3906117    21.033722    15.672732  0.097352618    1233828.7 
  561000   0.10161446   -5.3898624    21.027388    15.667512  0.069298934      1233862 
  562000    0.1050605   -5.3896531    21.036123    15.677473 0.0080931886    1233872.5 
  563000   0.10614486   -5.3895543    21.032804    15.674573  -0.06261344    1233878.4 
  564000  0.096848368   -5.3886791    21.031568    15.671469  -0.10509677    1233917.1 
  565000   0.11592614   -5.3887577    21.031133    15.676585  -0.12728944      1233912 
  566000  0.080272687   -5.3894572    21.028728    15.662959  -0.11477699    1233884.6 
  567000   0.11303373   -5.3895956    21.034686    15.678447 -0.054785024    1233878.7 
  568000  0.088922509   -5.3903656    21.033845     15.66972  0.016820273    1233835.5 
  569000   0.11996336   -5.3915437    21.029709    15.673566  0.073241445      1233778 
  570000  0.096697487   -5.3914142      21.0376    15.674721   0.11377101    1233788.6 
  571000   0.11133531   -5.3911935    21.032048     15.67371   0.10361045    1233799.4 
  572000  0.099866268    -5.391259    21.032266    15.670477  0.034141713    1233793.3 
  573000  0.092951573   -5.3900283    21.028982    15.666384 -0.045609924    1233857.3 
  574000   0.10967693   -5.3889612    21.040997    15.684402   -0.1325428    1233911.5 
  575000   0.10136808   -5.3889503    21.028545    15.669508  -0.19444862    1233905.4 
  576000  0.097843849   -5.3885505    21.028228    15.668551  -0.19241875    1233924.2 
  577000   0.10535605   -5.3885735    21.031588    15.674106  -0.13264679    1233929.3 
  578000  0.099603234   -5.3899397    21.029329    15.668782 -0.044897856    1233862.6 
  579000   0.10910446   -5.3907129    21.031228    15.672712  0.065010818    1233820.8 
  580000   0.11130749   -5.3909106    21.030164      15.6721    0.1611253    1233812.7 
  581000  0.087294758   -5.3916659    21.045063    15.679158   0.18807774    1233777.7 
  582000     0.101475   -5.3912063     21.02691    15.665649   0.16322488    1233796.5 
  583000   0.10765616   -5.3898409    21.033473    15.675402  0.092678941    1233860.6 
  584000    0.1116073   -5.3892366     21.03216    15.675859 -0.018752714    1233895.5 
  585000   0.11568116   -5.3883549    21.028253    15.674036  -0.11426863    1233940.2 
  586000  0.095182678   -5.3872963    21.032675    15.673467  -0.15404864    1233983.7 
  587000  0.088354315   -5.3877715    21.028993    15.667295  -0.14959953    1233961.1 
  588000   0.12320434   -5.3884813    21.035128    15.683005 -0.077272899    1233931.8 
  589000   0.10573777   -5.3888404    21.028513    15.670876    0.0337482      1233915 
  590000   0.10169358   -5.3901498    21.033277    15.673137   0.13071362    1233846.1 
  591000  0.089978204   -5.3910985    21.031406     15.66686   0.19070805    1233803.8 
  592000   0.10012475   -5.3906094    21.036167    15.675104   0.21257031    1233831.4 
  593000   0.10640057    -5.390472    21.036728    15.677655   0.16109845      1233832 
  594000  0.085929192    -5.390175    21.029368    15.664551  0.061752692    1233844.6 
  595000   0.11911386   -5.3887127    21.030953     15.67739 -0.023003806    1233923.4 
  596000   0.10573553   -5.3882748    21.027729    15.670657  -0.10178822    1233946.1 
  597000   0.10117172   -5.3886596    21.026867    15.668064   -0.1400768    1233920.7 
  598000  0.087740051   -5.3884915    21.030567    15.667968   -0.1130667    1233929.8 
  599000   0.10184546   -5.3890497    21.036933    15.677938 -0.058133533    1233906.6 
  600000  0.087173352   -5.3903258    21.037786    15.673185 -0.0094343311    1233840.2 
  601000   0.10885984   -5.3903697    21.028981    15.670736  0.040883041    1233835.3 
  602000   0.09700264   -5.3904494    21.035004     15.67318  0.057483402    1233837.6 
  603000  0.085506602   -5.3909923     21.03195    15.666191  0.036815602    1233812.1 
  604000  0.096616916   -5.3905152    21.030538    15.668535  0.011742217    1233828.9 
  605000  0.083980501   -5.3900343    21.036938    15.671686 -0.020291752    1233849.8 
  606000   0.09865003   -5.3903388    21.032645    15.671418 -0.059406642    1233840.7 
  607000  0.094560062   -5.3899119    21.034745    15.672738  -0.07504307    1233861.3 
  608000  0.092884072   -5.3894989    21.028009     15.66592 -0.070969225      1233878 
  609000  0.092322712   -5.3901378    21.031572    15.668679 -0.071644878    1233849.4 
  610000   0.10807058   -5.3901193    21.029456    15.671229 -0.047498856    1233853.2 
  611000  0.079610872   -5.3898769    21.036933    15.670549 -0.015224909    1233861.1 
  612000  0.099802185   -5.3905792    21.035128    15.674001 -0.00074905048    1233822.2 
  613000   0.10375724   -5.3904969    21.028002    15.668123  0.017458036    1233834.6 
  614000   0.11001439   -5.3898541    21.038995    15.681606  0.030224813    1233868.4 
  615000   0.10558148   -5.3901728    21.028535     15.66952  0.013982871    1233849.1 
  616000   0.10227808   -5.3899995    21.030066    15.670249 -0.0027456732    1233855.7 
  617000  0.082833171   -5.3891195    21.036863    15.672187 -0.0086548527    1233902.9 
  618000  0.096631223   -5.3893246    21.036195    15.675386 -0.025201685    1233890.1 
  619000   0.10723652    -5.389437    21.032998    15.675206 -0.026793529    1233881.3 
  620000    0.1091309   -5.3888129    21.025469    15.668861 -0.0028921192      1233918 
  621000   0.10762268   -5.3891787    21.038879     15.68146  0.019524378    1233902.1 
  622000   0.10055203   -5.3897414    21.025459     15.66539  0.036011411    1233870.1 
  623000  0.097114498   -5.3893134     21.03803    15.677375  0.072072036      1233885 
  624000  0.097287855   -5.3895983    21.034433    15.673545  0.080037375    1233877.6 
  625000  0.095432521     -5.38998    21.035286    15.673468  0.072023865    1233858.6 
  626000  0.099910353   -5.3892818    21.029042    15.669244  0.062148983    1233891.3 
  627000   0.11097527    -5.389087    21.030449    15.674111  0.033766273    1233900.1 
  628000   0.11748112   -5.3893225    21.032034     15.67738 -0.0082497265    1233892.3 
  629000  0.097086021   -5.3886667    21.033998    15.673981 -0.028706188    1233919.7 
  630000   0.10234884   -5.3886521     21.03421    15.675761 -0.040614467    1233916.8 
  631000  0.089979904   -5.3893962    21.031033     15.66819 -0.040170134    1233886.3 
  632000   0.11547463   -5.3893251    21.030371    15.675123 0.00019676985      1233894 
  633000   0.10046446    -5.389716    21.032542    15.672473   0.04462471    1233871.5 
  634000   0.10555027   -5.3908174    21.028798    15.669129  0.072720159    1233813.5 
  635000   0.10453022   -5.3907486    21.035795    15.675894  0.094838234    1233822.5 
  636000  0.099946477   -5.3904673    21.041456    15.680483  0.082431908    1233834.9 
  637000  0.090159215   -5.3907417    21.030231    15.666095  0.021975587    1233818.9 
  638000  0.097272471   -5.3899201    21.030954    15.669739 -0.045736797    1233861.2 
  639000  0.097975097   -5.3889293    21.034829    15.674812  -0.11243529    1233914.9 
  640000   0.10537534   -5.3891705    21.028381    15.670307  -0.16811945    1233898.2 
  641000  0.095811437   -5.3891037    21.030648    15.669818  -0.17088873    1233896.5 
  642000  0.098253246   -5.3890864    21.039494    15.679402  -0.12089802      1233901 
  643000  0.091514991   -5.3903791    21.037568    15.674195 -0.049330992    1233840.8 
  644000   0.10330328   -5.3911654    21.030834    15.670154  0.040840279    1233798.6 
  645000  0.093247749   -5.3912074     21.03706     15.67337   0.11743586    1233795.6 
  646000  0.094928458   -5.3917586    21.031137    15.667392   0.13407952    1233774.5 
  647000  0.097752967   -5.3915696    21.039082    15.676359  0.098412626    1233779.3 
  648000  0.081792553    -5.390184    21.030893    15.664846  0.033622904    1233844.2 
  649000    0.1010344   -5.3896309    21.038682    15.678867   -0.0679306    1233871.6 
  650000  0.099680097   -5.3889338    21.028251    15.668733   -0.1481051    1233913.2 
  651000  0.098676993   -5.3878721    21.034728    15.675976   -0.1727845    1233959.8 
  652000  0.098628857   -5.3882363    21.026932    15.667801  -0.15650454    1233940.4 
  653000   0.10956591   -5.3890815    21.030242    15.673493 -0.085421925    1233903.3 
  654000  0.084870871   -5.3892887    21.045656    15.681412  0.029962181      1233894 
  655000  0.094124228    -5.390368    21.028965    15.666374   0.12596761      1233838 
  656000  0.090781661   -5.3913087    21.034341    15.669821   0.18637581    1233793.5 
  657000  0.085796831    -5.390692    21.034656    15.669282     0.208011      1233830 
  658000  0.091530133   -5.3902515    21.032824    15.669583   0.15903717    1233845.6 
  659000   0.09527126   -5.3898988    21.031739    15.669955  0.061012945    1233858.7 
  660000  0.093433588   -5.3884016    21.032983    15.672154 -0.029692695    1233935.9 
  661000  0.085986087    -5.387595    21.040849    15.678628  -0.10451974    1233977.8 
  662000  0.091012049   -5.3880163    21.027459      15.6663  -0.14643538    1233953.6 
  663000  0.091331447   -5.3878839     21.03195    15.671018  -0.11023419    1233959.4 
  664000  0.089766974   -5.3883984    21.032631    15.670722 -0.032561769    1233937.5 
  665000  0.086708868   -5.3899538     21.03045    15.666084  0.047106086    1233859.3 
  666000   0.11125072   -5.3904693    21.036504    15.678865   0.13202897    1233827.4 
  667000  0.088254456     -5.39065    21.034053    15.669446   0.17124984    1233824.3 
  668000  0.096408392   -5.3912425    21.033474    15.670682   0.14717948    1233800.3 
  669000   0.08254448   -5.3906152    21.039055    15.672799  0.089841329    1233827.2 
  670000   0.09172731   -5.3895588    21.026324    15.663834  0.011793971    1233876.8 
  671000    0.1138595    -5.389568    21.038662    15.682694 -0.080402422    1233876.3 
  672000   0.10394599   -5.3890718    21.033079    15.674681  -0.13003357    1233903.2 
  673000  0.094532281   -5.3886297    21.036035    15.675302   -0.1344357    1233920.3 
  674000  0.096489609   -5.3895637    21.030101    15.669011  -0.11568854    1233876.7 
  675000  0.089669732   -5.3900698    21.030807    15.667199 -0.063245979      1233858 
  676000  0.093770731   -5.3900825    21.040513    15.678102 -0.0042844406    1233855.2 
  677000   0.11066123   -5.3909218    21.023869    15.665603   0.02815527    1233809.7 
  678000   0.10668917   -5.3913097    21.041193    15.681367  0.031745771    1233790.9 
  679000  0.091332242   -5.3904574    21.033577    15.670072   0.03367968    1233837.4 
  680000    0.1002373   -5.3906442    21.034474     15.67341 -0.0051206886    1233824.7 
  681000     0.094859   -5.3905107    21.030492    15.667974 -0.040514526    1233830.8 
  682000   0.10482394   -5.3895183    21.033782    15.675197  -0.05758748    1233882.2 
  683000   0.10616348   -5.3896018    21.034237    15.675964 -0.073462728    1233877.2 
  684000  0.092176389   -5.3898998    21.028309    15.665611  -0.07230386    1233857.5 
  685000   0.10700812   -5.3893596    21.038408    15.680627 -0.042851545    1233883.1 
  686000  0.086741081   -5.3896474     21.02802     15.66397 -0.013878045    1233877.1 
  687000  0.094505019    -5.390317    21.037078     15.67465   0.00868636    1233843.2 
  688000   0.10149262    -5.389787    21.028699    15.668862   0.04435054    1233865.4 
  689000   0.10577135   -5.3897589    21.034597    15.676051  0.057904942    1233867.4 
  690000   0.11064798   -5.3901617    21.037471    15.679962  0.049758995    1233851.1 
  691000   0.10576867   -5.3893972    21.031117    15.672932  0.043326599    1233885.1 
  692000   0.10530005   -5.3890602    21.030753    15.672767  0.025197045    1233900.4 
  693000  0.083259201   -5.3894113     21.03453    15.669689 -0.0031473395    1233889.7 
  694000   0.10486688   -5.3887694      21.0323    15.674477 -0.0024371354    1233921.7 
  695000  0.081216825   -5.3886247    21.028858      15.6642 -0.00037768065      1233922 
  696000   0.11819369   -5.3893035    21.032052    15.677627 0.0089113407    1233888.1 
  697000  0.096943781   -5.3891096    21.039413    15.678912  0.036883091    1233903.8 
  698000    0.1010134   -5.3890944      21.0291    15.669815  0.060127415    1233903.2 
  699000  0.089051635   -5.3899908    21.031687    15.667975  0.063326727    1233855.9 
  700000  0.091238413    -5.389828    21.034548    15.671645  0.071733208    1233867.2 
  701000  0.097562498   -5.3893608    21.029859    15.669289  0.066689293    1233891.8 
  702000    0.1070012   -5.3898941    21.034271    15.675952  0.030397123    1233858.2 
  703000   0.11234006   -5.3895969    21.030553    15.674108 -0.0031184018    1233871.5 
  704000   0.11950906   -5.3888412    21.032756    15.679182 -0.030519557    1233915.9 
  705000   0.10508551   -5.3893721     21.03151    15.673149 -0.066538605    1233891.2 
  706000  0.089807227   -5.3895214    21.035545    15.672525  -0.07629761    1233877.4 
  707000   0.10341494   -5.3891769    21.032157    15.673498 -0.049379332    1233894.6 
  708000   0.10241095   -5.3901606     21.03469     15.67475 -0.018673284    1233850.9 
  709000   0.10651375    -5.390956    21.038006    15.678482  0.029286924    1233808.7 
  710000  0.091004333    -5.390817    21.028587    15.664625  0.086208494    1233814.5 
  711000  0.092580872   -5.3914459    21.034992    15.670867  0.093808894    1233789.2 
  712000  0.095806501   -5.3915216     21.03657    15.673321  0.058673182    1233787.9 
  713000   0.10231563   -5.3902569    21.037103     15.67704 -0.0036452971    1233842.4 
  714000  0.096663055   -5.3897035    21.031379    15.670201 -0.096996896    1233867.1 
  715000   0.11078498   -5.3893763     21.03612    15.679437  -0.18330525      1233888 
  716000   0.11473788   -5.3883088    21.033402    15.678952  -0.20562518    1233941.2 
  717000  0.096264837   -5.3886901    21.030487    15.670205  -0.18365736    1233918.8 
  718000   0.10624649   -5.3898256    21.030676    15.672204   -0.1121666    1233865.1 
  719000  0.099993845   -5.3900805    21.036063    15.675491 0.0067398763      1233856 
  720000   0.11640012   -5.3909683    21.033421    15.676802   0.11129297    1233807.2 
  721000   0.10510911   -5.3920382     21.03755     15.67653   0.16715155      1233752 
  722000   0.11185942    -5.391308    21.029628     15.67133   0.18238624    1233793.4 
  723000  0.087704473   -5.3905497    21.034068      15.6694   0.12706232    1233834.6 
  724000  0.091717359    -5.390185    21.034948    15.671829  0.019839108    1233847.3 
  725000  0.095526062    -5.388636    21.027833    15.667387 -0.075371806    1233920.9 
  726000  0.092965444   -5.3875504    21.033448    15.673332   -0.1410155    1233977.4 
  727000   0.10672014   -5.3879364    21.033657    15.677214  -0.16583067    1233958.3 
  728000   0.11879833   -5.3879052    21.026572    15.673724  -0.11587043    1233956.9 
  729000   0.10665279   -5.3883421    21.027185    15.670316 -0.018785918    1233938.6 
  730000  0.085248597   -5.3899461    21.033236    15.668446   0.07655394    1233864.7 
  731000  0.098092845   -5.3904982     21.03536    15.673809   0.16985159    1233833.5 
  732000  0.096683452   -5.3904609    21.031686    15.669756   0.21547302    1233831.9 
  733000   0.11997629   -5.3908735     21.03915    15.683682   0.19358861    1233814.2 
  734000   0.11223684   -5.3901669     21.03131    15.674264   0.12326617    1233852.2 
  735000  0.095004582   -5.3888994    21.026963      15.6661  0.033572236    1233910.7 
  736000   0.10878786   -5.3887519    21.029947    15.673299 -0.065871233    1233916.6 
  737000   0.11134348   -5.3883346    21.030923    15.675446  -0.12260371    1233939.9 
  738000  0.094941582   -5.3877764    21.032447    15.672688  -0.12217488    1233966.2 
  739000   0.10246595   -5.3888213    21.029934     15.67135 -0.093957289    1233909.7 
  740000   0.10704651   -5.3897242    21.031308    15.673173 -0.030358297      1233868 
  741000   0.10691868   -5.3898253    21.030809    15.672535  0.049978419    1233870.1 
  742000   0.09761822   -5.3908785    21.031142     15.66907  0.090855006    1233816.5 
  743000  0.095799394   -5.3914734    21.035247    15.672044  0.095874362    1233781.1 
  744000   0.10479947   -5.3906368    21.031019    15.671308  0.080488901    1233825.2 
  745000   0.08467322   -5.3905369    21.036464    15.670914  0.019974463    1233833.2 
  746000   0.10968232    -5.390424    21.026656    15.668599  -0.05031126    1233834.1 
  747000  0.097635835    -5.389353    21.028378    15.667837 -0.094880728    1233886.9 
  748000  0.098956835   -5.3893004    21.030317    15.670219  -0.12558143    1233895.2 
  749000  0.097608732   -5.3899337    21.036827    15.675697  -0.13293535    1233862.5 
  750000   0.09662259   -5.3895925    21.031167    15.670088 -0.089596897    1233872.3 
  751000  0.089856442   -5.3900307    21.035563    15.672049 -0.043196472    1233852.8 
  752000  0.094096935   -5.3909436    21.036852    15.673676 -0.0050406363      1233814 
  753000    0.1122088   -5.3905654    21.025326    15.667874  0.037533994    1233830.8 
  754000   0.10258971   -5.3905138    21.033279    15.673039  0.046740281    1233828.7 
  755000   0.10685257   -5.3908886    21.030722    15.671366  0.025165043    1233814.5 
  756000   0.11027926   -5.3900499    21.033698    15.676191 0.0059153088    1233856.5 
  757000  0.097752794   -5.3894354    21.039859    15.679271 -0.017998948      1233879 
  758000   0.10011529   -5.3897554    21.031344    15.671133   -0.0474475    1233865.5 
  759000   0.11879046    -5.389137    21.029604    15.675522  -0.04312028    1233903.1 
  760000   0.09500893   -5.3887816    21.029781    15.669036  -0.02625129    1233920.6 
  761000  0.097406975   -5.3895964    21.032258    15.671407 -0.011901042      1233872 
  762000   0.10039976   -5.3894983    21.031301    15.671431   0.02198429    1233879.6 
  763000    0.1018011   -5.3891179    21.032972    15.673895  0.059039477    1233903.3 
  764000   0.10725739   -5.3898518    21.040646    15.682446  0.066913182    1233863.5 
  765000   0.10632934   -5.3897184    21.023706    15.665365  0.068369694    1233870.4 
  766000   0.10266108   -5.3889765    21.034466    15.675785  0.071714121    1233911.7 
  767000  0.093348615   -5.3894341    21.032191    15.670304  0.042386764    1233889.3 
  768000  0.094441742   -5.3893583    21.032821    15.671332   0.02228082    1233883.7 
  769000  0.085479327   -5.3886638    21.035157    15.671718  0.017290752    1233918.2 
  770000  0.090180587   -5.3891386    21.028929    15.666403  0.002867612    1233901.9 
  771000   0.10611977   -5.3894002    21.032409    15.674325 0.0033912567    1233887.9 
  772000   0.11386823   -5.3889384     21.02375    15.668414  0.020406931    1233907.7 
  773000   0.10903642   -5.3895371    21.032229    15.674868  0.021640568    1233879.8 
  774000   0.11584689   -5.3900033    21.032765    15.676948  0.021444906    1233858.7 
  775000  0.096020714   -5.3894968    21.040102    15.678941  0.029249305    1233877.7 
  776000   0.10345157    -5.389899    21.030421     15.67105  0.016302008    1233858.1 
  777000   0.10778568   -5.3903032    21.029279    15.670783 -0.0027047974    1233844.2 
  778000   0.10033927   -5.3896363    21.030785    15.670759 -0.0057879347    1233879.1 
  779000   0.10808491    -5.389863    21.030539    15.672572 -0.023914027    1233861.5 
  780000   0.10810162   -5.3903637    21.025836    15.667373 -0.042233757    1233837.8 
  781000  0.098837714   -5.3898496    21.041351    15.680668 -0.041644116    1233865.5 
  782000  0.095606341   -5.3899537    21.034732    15.672992 -0.041404186    1233859.8 
  783000   0.10395553   -5.3906327    21.029036    15.669081 -0.046482821    1233823.9 
  784000   0.10919816    -5.390152     21.03143    15.673502 -0.033545997    1233850.9 
  785000   0.11208438   -5.3900616    21.032769    15.675784 -0.026828789    1233857.7 
  786000  0.097859595   -5.3907769    21.035802    15.673904 -0.036605112    1233816.7 
  787000   0.10541555   -5.3902473    21.027455    15.668316 -0.026439398    1233841.1 
  788000  0.090652721     -5.38996    21.042481    15.679273 -0.026140976    1233858.3 
  789000   0.11591121   -5.3904813    21.026704    15.670428 -0.033295166    1233836.1 
  790000   0.10208987   -5.3900662    21.030131    15.670192 -0.026827181    1233851.6 
  791000  0.093697012   -5.3895839    21.027819    15.665885 -0.016466391    1233875.3 
  792000   0.11125515   -5.3901622    21.034962    15.677631 -0.022766053    1233849.8 
  793000   0.11197953   -5.3898623    21.035688    15.678871 -0.011084673    1233862.2 
  794000  0.098828619   -5.3893294    21.032166    15.672001 0.0060246439    1233885.7 
  795000   0.10437507   -5.3898926    21.031825    15.672734 0.0059237597    1233862.3 
  796000   0.11284346   -5.3896899    21.031091    15.674701  0.018782112    1233877.3 
  797000   0.10259052    -5.389077    21.031085    15.672282  0.033990546    1233902.7 
  798000    0.1082182   -5.3895984    21.026169    15.668506  0.028075479    1233872.4 
  799000  0.097241583   -5.3895377    21.038054    15.677212  0.030592953    1233878.8 
  800000   0.10481898   -5.3887987    21.033016     15.67515  0.042006183    1233917.8 
  801000   0.10280283   -5.3893258    21.035015    15.676027   0.03193922    1233887.6 
  802000  0.092056541   -5.3894743    21.028405    15.666097  0.027976798    1233882.9 
  803000   0.10786009   -5.3887247     21.03367    15.676775  0.043663934    1233924.3 
  804000   0.11276606   -5.3891968    21.030574    15.674654  0.036241084    1233896.7 
  805000   0.11229658   -5.3896082    21.031008    15.674539  0.028882933      1233870 
  806000  0.085900518    -5.388961    21.038167    15.674556  0.037946264    1233904.7 
  807000   0.10647899   -5.3893266    21.026413    15.668509  0.028120786      1233894 
  808000  0.099149133   -5.3898657    21.034883    15.674277  0.016483527    1233862.8 
  809000  0.086002122    -5.389289    21.027895    15.663985  0.020543165    1233889.3 
  810000   0.10584727   -5.3894605     21.03199    15.673765  0.013070477    1233884.4 
  811000   0.10323064   -5.3900998    21.036406     15.67677 -0.0031052289    1233852.1 
  812000   0.10006538   -5.3895871    21.034762    15.674704 -0.0027352328    1233871.6 
  813000   0.10896404   -5.3896956    21.031567    15.674027 -0.0099741862    1233869.2 
  814000  0.088368688   -5.3903485    21.032032    15.667761 -0.024627517    1233845.3 
  815000   0.11411038   -5.3899099    21.035096     15.67886 -0.021261343      1233862 
  816000   0.10223603   -5.3898609    21.030488    15.670797 -0.022831261    1233860.1 
  817000   0.10512614   -5.3905941    21.031985    15.672413 -0.036918296    1233826.4 
  818000  0.091212877   -5.3901836    21.039617     15.67635 -0.034057805    1233849.7 
  819000   0.10019743   -5.3899748    21.031889    15.671483 -0.032017371      1233856 
  820000   0.10063222   -5.3907238    21.035899    15.674871 -0.045931098    1233820.1 
  821000  0.086024534    -5.390262    21.031082    15.666206 -0.036138831    1233847.9 
  822000  0.095986381   -5.3898668    21.035674    15.674133 -0.030798022    1233863.9 
  823000    0.1090508   -5.3905872    21.034946     15.67654 -0.041767075      1233822 
  824000   0.11460493    -5.390266    21.030889    15.674443 -0.033463307    1233840.4 
  825000   0.10021884    -5.389686    21.034673    15.674561 -0.021358331    1233875.4 
  826000   0.10097491   -5.3903168    21.034689     15.67417 -0.026287535    1233841.3 
  827000   0.10069863   -5.3901411    21.029219    15.668794 -0.017585519    1233848.2 
  828000  0.098746823   -5.3894447    21.029728    15.669423 0.00042820108    1233884.1 
  829000   0.11521724    -5.389955    21.033913    15.677959 -0.0019563529    1233859.5 
  830000   0.10413581   -5.3899293    21.033868     15.67467  0.004347774    1233855.7 
  831000   0.10270436   -5.3891898    21.028946    15.670064  0.019767009    1233893.7 
  832000  0.083368946   -5.3895852    21.030109    15.665126  0.016029038    1233881.4 
  833000  0.095244967   -5.3896872    21.038491     15.67691  0.019097405    1233874.9 
  834000   0.10384921   -5.3889303    21.025823    15.667538  0.032585331    1233907.6 
  835000   0.10213239   -5.3892547    21.031906    15.672791  0.031683495    1233890.3 
  836000   0.10962721   -5.3895069    21.037614    15.680458  0.032152119    1233882.1 
  837000   0.10968857    -5.388767    21.035027    15.678629  0.046344128    1233916.4 
  838000  0.081448761   -5.3892091    21.026696    15.661522  0.036363825    1233895.7 
  839000  0.094030163   -5.3896217    21.033257    15.671383  0.034497568    1233877.1 
  840000  0.087902517    -5.388922    21.036671    15.673689  0.046390262    1233912.6 
  841000   0.11552119   -5.3891368    21.028838    15.673791    0.0422722    1233895.9 
  842000   0.10575496   -5.3897582    21.034297    15.675747  0.027280035    1233863.8 
  843000   0.11385685   -5.3891099    21.029654    15.674143  0.030678441    1233901.8 
  844000  0.083460447   -5.3892332    21.035982    15.671378  0.019558084      1233897 
  845000  0.098854182   -5.3899391    21.026389    15.665622 0.00027296771    1233860.2 
  846000   0.11222953   -5.3894494    21.034369    15.678038 0.0031694156      1233881 
  847000  0.095958454   -5.3894017    21.032578    15.671494 0.00060264405    1233887.6 
  848000   0.10992899   -5.3902667    21.036403    15.678576 -0.015312321    1233841.3 
  849000   0.09159038   -5.3898887    21.027363    15.664502 -0.010427443    1233859.6 
  850000  0.087865866   -5.3897429    21.033916    15.670102 -0.0099715817    1233870.5 
  851000  0.077105097   -5.3905138    21.034078    15.666318 -0.024821246    1233836.2 
[...]
 1878000    296.55506   -5.1789785    97.762359    180.09684    -16.65145 
 1879000     290.2223   -5.2280893    92.582042    172.99861   -12.611378 
 1880000     271.6054   -5.2355788    86.910842    161.82607   -8.3934972 
 1881000    255.29216   -5.2223901    96.927566    167.04194    -16.02451 
 1882000     259.0121   -5.1663461    96.684747    167.95292   -15.267448 
 1883000    314.50049   -5.1785331    103.86027    191.49089   -13.793225 
 1884000     221.4424   -5.1908875    102.03407    162.19088   -15.487315 
 1885000    267.37722   -5.2404703    86.979686    160.64229   -11.857784 
 1886000    316.04926   -5.2155656    95.349781    183.40041   -15.008804 
 1887000     288.8248   -5.2203355    99.985214    179.99713   -10.323729 
 1888000     255.8714   -5.2411365    86.595481    156.86204   -15.610436 
 1889000    222.22528   -5.1898924    102.91167     163.3005   -12.370876 
 1890000    236.25876   -5.1759365    91.858031     156.4021   -16.958687 
 1891000    240.89236   -5.2587962    87.068801    152.89739   -10.769003 
 1892000    262.19156   -5.2331106    96.773389    168.91306   -15.008957 
 1893000    266.99827    -5.184292    100.04133    173.64828   -15.715121 
 1894000    266.87642   -5.1826125     96.78707    170.35974   -19.117133 
 1895000    274.35297   -5.2272384    93.301944    169.03632   -8.9493982 
 1896000    288.08318   -5.2407622    89.279837    169.05248   -11.850102 
 1897000    212.54837   -5.2206955    98.480873    155.98324   -13.755204 
 1898000    271.09712   -5.2130762     93.24802    168.03576   -17.976304 
 1899000    267.79438   -5.1876007    99.583536    173.42211   -8.0209556 
 1900000    286.24042   -5.1257236    100.22858    179.57246   -25.320733 
 1901000    246.29663   -5.1847725    86.953821    154.45123   -7.3361582 
 1902000    256.89505   -5.2416875    99.677951    170.24604   -12.499414 
 1903000    279.15168   -5.3012552    83.272956    160.34942   -10.156265 
 1904000    269.11324   -5.1901624    108.74936    182.97457   -10.672334 
 1905000    277.87489    -5.162125     90.85878    167.69759   -27.490801 
 1906000    303.99228   -5.1675888    94.188968    178.72956   -9.8653169 
 1907000    277.98925   -5.1615355    105.92126    182.79441    -26.16406 
 1908000    257.63919   -5.2008763    106.03306    176.86156   -8.7689287 
 1909000    221.54514   -5.2464999    86.301232    146.43275   -15.862949 
 1910000    255.13493   -5.2220115    95.339964    165.40832   -13.333711 
 1911000    257.10438   -5.1785675    102.02203    172.71502   -19.705864 
 1912000    267.86535   -5.2016166    95.019616    168.86512   -13.671468 
 1913000    276.31492   -5.2458633    84.466636    160.76136    -10.86776 
 1914000    277.92951    -5.223541    96.344314    173.13783   -14.852141 
 1915000     247.6448   -5.1962859    87.013238    154.89698    -17.44331 
 1916000    299.46348   -5.2137827    95.363061    178.52101   -14.198268 
 1917000    282.40078   -5.1370345    99.886398    178.08589   -21.601638 
 1918000    245.56518   -5.1808499    90.723625    158.00911   -17.999614 
 1919000    231.91683   -5.2187261    95.158097    158.37807   -12.680342 
 1920000    254.20848   -5.2634581    79.311659    149.06517   -4.6577044 
 1921000    295.50474   -5.1844959    91.133271    173.15228   -18.175524 
 1922000    234.76754   -5.1106381    98.279147    162.44846   -21.304689 
 1923000    273.65617   -5.1440618     98.39923    174.01116   -21.221574 
 1924000    231.93927   -5.2103009    99.616386    162.85141   -11.009053 
 1925000    248.78539     -5.19581    99.865974    168.08678   -18.968508 
 1926000    284.75723   -5.2614918    90.236478     169.0069   -7.0840518 
 1927000    229.20678   -5.2279377    90.284133    152.69516   -12.027857 
 1928000    273.37106   -5.1389399    91.079113    166.61203   -20.620683 
 1929000    233.15949    -5.181499    109.47648    173.10039   -19.123071 
 1930000    264.89164   -5.2275586    101.68212    174.62414   -16.379021 
 1931000    279.48834   -5.2602581    84.165393     161.3822   -6.7529497 
 1932000    243.90646   -5.2251831    101.85617    168.60783   -16.449873 
 1933000    245.12976   -5.2113772    93.981443     161.1079   -13.220973 
 1934000     268.4587   -5.1919361    93.240633    167.27091   -16.097575 
 1935000    328.37906   -5.1902403    102.65995    194.37443   -17.698903 
 1936000    268.92168   -5.2130141    92.027704    166.17353    -13.81407 
 1937000    275.25487   -5.2357235    90.305425    166.29747   -12.432462 
 1938000    260.48793   -5.2324866    85.267303    156.90485   -12.757702 
 1939000    282.18945   -5.1217755    105.56571     183.7181   -18.577742 
 1940000    280.21288   -5.1881133    99.872824    177.37559   -18.028119 
 1941000    251.59976   -5.2386692    87.609156    156.61762   -13.943731 
 1942000    280.70511   -5.2864146    89.491142    167.04086   -3.4378122 
 1943000    246.74708   -5.2022249    99.391897    167.00478   -12.817813 
 1944000    268.04041   -5.1933916    98.383627    172.28901   -18.115316 
 1945000    282.00571   -5.1575702    106.00313     184.0655   -17.488508 
 1946000    250.64789   -5.1597148    99.671045    168.47757   -20.512554 
 1947000     244.8643   -5.2051667    91.475601    158.52994   -10.603834 
 1948000     248.9887   -5.3124927    95.858264    164.02239    -8.211619 
 1949000    263.16378   -5.2281348    97.564329    169.99588   -9.5006607 
 1950000    286.81849   -5.1855166    101.31854    180.77321   -12.251994 
 1951000    283.84235   -5.1645586    98.778507    177.37588   -22.079745 
 1952000    317.58453   -5.1884123    101.55984    190.09068   -10.818009 
 1953000    296.71931   -5.2157739    86.779339    169.12549   -19.835295 
 1954000    254.01384   -5.2894543    92.728828    162.39891   -2.3039502 
 1955000    241.93267   -5.2479886     98.48475    164.63114   -11.246376 
 1956000    246.54287   -5.2103649     105.1861    172.73058   -19.500819 
 1957000    280.13003   -5.1190832    96.655394    174.20274   -19.215474 
 1958000    230.67711   -5.2101343    96.133213    158.99594   -17.711491 
 1959000    262.20332    -5.262878    86.271771    158.38514     -9.90821 
 1960000    238.03582   -5.2105615    99.833182    164.86704   -12.931706 
 1961000    262.77849    -5.191118    94.638156    166.99302   -14.049271 
 1962000    244.97638   -5.1489634    95.506402    162.65002   -19.658534 
 1963000    234.87414   -5.2151264     94.05128    158.14756   -16.061097 
 1964000    287.75843   -5.2297933    90.293527     169.9813   -12.425649 
 1965000    250.27015   -5.2752638    86.711131    155.29064   -8.8613192 
 1966000    279.44732   -5.2715585    101.36637    178.55977   -9.0104183 
 1967000    272.48149   -5.2067259    89.189149    164.39176   -13.558063 
 1968000     276.2063   -5.1025235    113.49192    189.89793    -26.85426 
 1969000    282.34854   -5.1803426    108.87094    187.01171   -17.390382 
 1970000    239.44418   -5.2624466    87.065327    152.46291   -9.3187039 
 1971000    261.88101   -5.2531884    91.332571    163.36052   -8.7542476 
 1972000    354.56481   -5.2586843     94.62654          194   -8.6960781 
 1973000    268.47227   -5.2112257    96.748185    170.76318   -17.325551 
 1974000    238.93528   -5.1666991    109.41771    174.76086   -17.406274 
 1975000    267.19103   -5.1455259    96.571506    170.27411   -22.008004 
 1976000    283.22383   -5.2143334    109.16168    187.52675   -11.676503 
 1977000    277.19829   -5.2615426    93.525098    170.06482    -8.150411 
 1978000    268.76594   -5.2170026    98.227601    172.32348   -12.932597 
 1979000    269.29361   -5.1685713    101.59942    175.89944   -16.696626 
 1980000    217.46583   -5.2311054    93.933512    152.87662   -16.402228 
 1981000    246.30128   -5.2356803     94.29518    161.74305   -9.9286363 
 1982000    257.33963   -5.2137927    91.674435    162.40162   -17.058829 
 1983000    286.26599   -5.2267685    98.585272    177.83565   -5.2457485 
 1984000    242.89917   -5.2253782    92.883289     159.3375   -15.986496 
 1985000    292.41985   -5.1864125    102.68154    183.78828   -13.731934 
 1986000    291.38555   -5.1493543    117.27826    198.11684   -25.218909 
 1987000    250.97326   -5.2516192    93.819627    162.63027   -13.555004 
 1988000    223.75229   -5.2979189    85.373864    146.10529  -0.39490896 
 1989000    246.10795   -5.2530552    93.225874    160.59932   -11.154154 
 1990000    287.33136   -5.1935943    100.56802    180.16596   -14.687989 
 1991000    258.59502   -5.2294832    98.600774    169.68273   -17.846904 
 1992000    268.10512   -5.1562291    91.034801    164.99644   -17.373297 
 1993000    293.35677   -5.1607865    95.157803    176.56666   -15.337651 
 1994000    266.30866   -5.2658996    90.107106    163.42895   -9.2552695 
 1995000     292.0501   -5.2906997    97.101166    177.99451    1.7536779 
 1996000     260.3518   -5.2132396    99.053405    170.67003   -18.773533 
 1997000    268.17141   -5.1587934    93.182728    167.16137   -18.386613 
 1998000    278.32421   -5.1833096    106.19934    183.14956   -16.738262 
 1999000    262.16939   -5.2054174    93.542925    165.70375   -9.1585316 
 2000000    252.41154    -5.175792    92.729952    162.04085   -17.092992 
 2000482    270.05688   -5.1990696    92.294473    166.78924      -15.675 
Loop time of 35.2853 on 32 procs for 1000000 steps with 100 atoms

Performance: 612.153 ns/day, 0.039 hours/ns, 28340.428 timesteps/s
100.0% CPU use with 32 MPI tasks x no OpenMP threads

MPI task timing breakdown:
Section |  min time  |  avg time  |  max time  |%varavg| %total
---------------------------------------------------------------
Pair    | 0.81429    | 1.0212     | 1.2656     |  10.1 |  2.89
Bond    | 1.3688     | 1.4509     | 1.6482     |   6.7 |  4.11
Neigh   | 0.4907     | 0.57156    | 0.60571    |   3.9 |  1.62
Comm    | 20.455     | 21.985     | 25.994     |  29.0 | 62.31
Output  | 0.059207   | 0.060604   | 0.094859   |   2.5 |  0.17
Modify  | 5.8173     | 9.7441     | 11.146     |  41.5 | 27.62
Other   |            | 0.4519     |            |       |  1.28

Nlocal:    3.125 ave 4 max 3 min
Histogram: 28 0 0 0 0 0 0 0 0 4
Nghost:    20.2188 ave 21 max 20 min
Histogram: 25 0 0 0 0 0 0 0 0 7
Neighs:    21.5 ave 34 max 1 min
Histogram: 1 1 1 2 3 2 12 4 2 4

Total # of neighbors = 688
Ave neighs/atom = 6.88
Ave special neighs/atom = 6
Neighbor list builds = 20000
Dangerous builds not checked
#run     1000
unfix         NVT

# --------------- Equilibration in nve -----------------

fix 		NVE gfree nve
run 		100000
WARNING: Inconsistent image flags (../domain.cpp:782)
Per MPI rank memory allocation (min/avg/max) = 8.192 | 8.506 | 8.57 Mbytes
Step Temp E_pair E_mol TotEng Press 
 2000482    270.05688   -5.1990696    92.294473    166.78924      -15.675 
 2001000    285.23511   -5.2360432    87.854003     166.7909   -9.7847048 
 2002000    269.89381   -5.2589669    92.399367    166.78612   -9.2650985 
 2003000    246.88703   -5.1731731    99.114186    166.79742   -22.380487 
 2004000    276.56795   -5.1932605    90.371845    166.79384   -12.276777 
 2005000    248.87011   -5.2427154    98.596632    166.79553   -14.816518 
 2006000    267.85591   -5.2567411    93.002234    166.78982   -8.7129083 
 2007000    264.65685   -5.2141331    93.905575    166.79173   -11.468777 
 2008000    277.25327   -5.1817094    90.152978    166.78876   -16.964993 
 2009000    237.57981   -5.1945132    101.88539    166.80072   -8.7745149 
 2010000    251.80399   -5.1634908    97.654328    166.79825   -22.043931 
 2011000    269.05216   -5.1990914    92.598629    166.79688   -10.544797 
 2012000    282.10926   -5.2798854    88.816358    166.78697   -8.5972413 
 2013000    264.51003   -5.2551498    93.992371    166.79418   -6.2783174 
 2014000    262.44225   -5.1787886     94.52655    166.79452   -15.072594 
 2015000     253.8893   -5.1681048     97.04014    166.79482   -15.515289 
 2016000    248.71824   -5.1824659    98.576797    166.79113   -16.571156 
 2017000    249.48738   -5.2299968    98.400509    166.79429   -19.273706 
 2018000    284.87286   -5.2536196    87.967746    166.78016   -4.2092333 
 2019000    281.88121   -5.2439414    88.852227    166.79149   -12.111911 
 2020000    257.79883   -5.2720263    95.990096    166.79456    -5.527388 
 2021000    256.47261   -5.1770821    96.290715    166.79875   -16.006248 
 2022000    249.31206   -5.1606962    98.388406    166.79975   -18.345634 
 2023000    279.14096   -5.2472837    89.661001    166.78827    -9.285184 
 2024000    234.40791    -5.190338     102.8161    166.79958    -18.76594 
 2025000    280.14219   -5.2198659    89.338147    166.78829    -10.82441 
 2026000    250.23745    -5.171236    98.122585    166.79647   -22.051053 
 2027000    239.62808   -5.2041861    101.28516    166.79527   -15.569945 
 2028000    277.56646    -5.218319    90.099604     166.7912   -11.027276 
 2029000    275.33405   -5.2046289     90.74511    166.79161   -15.438258 
 2030000    287.58001   -5.2427168    87.159825    166.78203    -7.266123 
 2031000    258.12798   -5.2140364    95.833924     166.7935   -20.536174 
 2032000     253.0575   -5.1776612    97.299761    166.79942    -10.68791 
 2033000    275.24578   -5.1839744    90.755269    166.79638   -16.815105 
 2034000    278.35949   -5.2440775    89.889216    166.78908   -7.4911149 
 2035000    277.01647   -5.2372023    90.274847    166.78526    -9.681816 
 2036000    255.73474   -5.2109115    96.544702    166.80116   -9.6887679 
 2037000    263.23878   -5.2080286    94.320972    166.79476   -14.170175 
 2038000    282.95703   -5.2174624    88.514535    166.79775   -10.171407 
 2039000     245.6164   -5.1660964    99.483815    166.79917   -21.323758 
 2040000    267.64473   -5.2006438    93.017064    166.79843   -12.235568 
 2041000    273.39421   -5.2683732    91.382648    166.79296   -9.6648993 
 2042000    282.17059   -5.2295878    88.750231    166.78924    -17.29342 
 2043000    292.55806   -5.2176288    85.668699    166.78501   -9.0394782 
 2044000    256.77329   -5.2294728     96.24848    166.79286   -14.130301 
 2045000    247.13055   -5.2012091     99.07543    166.80249   -12.543958 
 2046000    278.44439   -5.1944258    89.822149    166.79672   -12.339552 
 2047000    291.16429   -5.1497825    86.025802    166.79866   -20.628229 
 2048000    285.62108   -5.2336536    87.742552    166.79574   -10.366296 
 2049000    233.74116   -5.2360998    103.06037    166.80133   -14.312712 
 2050000    254.88087   -5.1829334    96.770138     166.8026   -20.001402 
 2051000    266.02576   -5.2143895    93.509762    166.79963   -14.562662 
 2052000    282.44991   -5.2330732    88.674998    166.79295    -15.00609 
 2053000    289.33569   -5.1845616     86.59838    166.79684   -13.841141 
 2054000    223.12019   -5.1755416     106.1445    166.81177   -10.087371 
 2055000    283.54817   -5.2108224     88.32421    166.78851   -18.640146 
 2056000    254.83053   -5.1833226    96.782923    166.80014   -12.502259 
 2057000    257.39781   -5.1773147    96.015086    166.79592   -16.087402 
 2058000    253.87337   -5.2062832    97.087737    166.79954   -17.890519 
 2059000    277.33803   -5.2416144    90.184225    166.78512   -3.7881131 
 2060000    268.91513   -5.1975341    92.633088    166.79246   -22.066186 
 2061000    252.20871   -5.2044168    97.572217    166.79464   -9.0578977 
 2062000    264.85857   -5.2131723    93.842709    166.78935   -17.173345 
 2063000    253.37531   -5.1314612    97.160498    166.80014   -15.431048 
 2064000    271.77549   -5.1717057    91.768212     166.7975   -20.660997 
 2065000    268.41598   -5.2191629    92.800157     166.7906   -7.7191897 
 2066000    279.65472   -5.2379368    89.499653    166.78788    -12.52474 
 2067000    260.29754   -5.2480319    95.223341    166.78916   -8.2625264 
 2068000    250.80248   -5.2086529     97.99285    166.79606   -14.404359 
 2069000    248.79867   -5.2085885    98.585667    166.79762   -19.591432 
 2070000    289.72631   -5.2532786    86.547755    166.79277 -0.054055167 
 2071000    266.00419   -5.2068597    93.504921    166.79595   -16.514988 
 2072000    265.71779   -5.2175415     93.59221    166.78804   -5.2883597 
 2073000    261.10702   -5.2489666    94.989069    166.79283   -13.499426 
 2074000    273.32996   -5.1915289    91.325079    166.79328   -16.750364 
 2075000    272.24707   -5.1613225    91.617494    166.79633   -16.981455 
 2076000    265.00232   -5.2400022    93.833263     166.7955   -16.143477 
 2077000    271.28577    -5.180826    91.916811    166.79247   -7.8592352 
 2078000    248.40995   -5.1893116    98.685096    166.80161   -20.699337 
 2079000    242.90948   -5.2095827    100.32184    166.79489   -7.4232488 
 2080000    276.28219   -5.2089932     90.47239    166.79433   -17.397136 
 2081000    240.93971   -5.1793355    100.88283    166.80484   -13.451498 
 2082000    265.72241    -5.198409    93.574643    166.79097   -14.623857 
 2083000    267.79591   -5.2845248    93.051453    166.79355   -9.6422055 
 2084000    257.25091   -5.2489265    96.133678    166.79955   -7.8425554 
 2085000    239.10149   -5.1595228    101.40104    166.80042   -23.195924 
 2086000    277.91861   -5.1565168    89.939915    166.79724   -19.353442 
 2087000     284.8444    -5.223542     87.95841    166.79251   -18.354956 
 2088000    256.11984   -5.2292381    96.446509    166.79829   -13.356056 
 2089000    239.96534   -5.2719822    101.25865    166.80049   -6.9338756 
 2090000    256.32981   -5.2551987    96.406383    166.79416   -18.793193 
 2091000    266.13787   -5.2243973    93.485183    166.79812    -6.650683 
 2092000    268.18745   -5.1858485      92.8467    166.80302   -19.220006 
 2093000    256.34764   -5.1854794    96.342596    166.80536   -10.446372 
 2094000    255.24517   -5.2317769     96.70747    166.79859   -10.688725 
 2095000      280.328   -5.2823741    89.349748    166.79222   -11.575659 
 2096000    266.99095   -5.2090909    93.217646    166.79764   -16.060413 
 2097000    274.76838   -5.2325865    90.937691    166.78931   -8.6058705 
 2098000    278.51644   -5.1916392    89.797247    166.79586   -17.255011 
 2099000    261.90693   -5.1984616    94.711951    166.80228   -12.777349 
 2100000    281.68674   -5.2112714    88.874584    166.78912   -12.014691 
 2100482    280.33419   -5.1964001    89.264728      166.795    -17.49127 
Loop time of 2.83953 on 32 procs for 100000 steps with 100 atoms

Performance: 760.690 ns/day, 0.032 hours/ns, 35217.109 timesteps/s
100.0% CPU use with 32 MPI tasks x no OpenMP threads

MPI task timing breakdown:
Section |  min time  |  avg time  |  max time  |%varavg| %total
---------------------------------------------------------------
Pair    | 0.08153    | 0.10165    | 0.12311    |   3.1 |  3.58
Bond    | 0.13148    | 0.14074    | 0.157      |   2.0 |  4.96
Neigh   | 0.048693   | 0.065242   | 0.080772   |   3.9 |  2.30
Comm    | 2.3988     | 2.4463     | 2.4984     |   1.3 | 86.15
Output  | 0.0063797  | 0.0073278  | 0.0098865  |   0.8 |  0.26
Modify  | 0.026929   | 0.037157   | 0.046769   |   2.2 |  1.31
Other   |            | 0.04111    |            |       |  1.45

Nlocal:    3.125 ave 4 max 3 min
Histogram: 28 0 0 0 0 0 0 0 0 4
Nghost:    20.375 ave 21 max 20 min
Histogram: 20 0 0 0 0 0 0 0 0 12
Neighs:    21.2812 ave 45 max 1 min
Histogram: 3 1 3 4 9 4 3 2 1 2

Total # of neighbors = 681
Ave neighs/atom = 6.81
Ave special neighs/atom = 6
Neighbor list builds = 2000
Dangerous builds not checked
#run             1000

# --------------- Fix Heat -----------------

compute   ke all ke/atom
variable  temp atom c_ke/0.003
#fix       3 all ave/spatial 1 20000 20000 x lower 2.5 v_temp file tmp.profile units box
compute cc1 all chunk/atom bin/1d x lower 2.5 units box

fix 3 all ave/chunk 1 20000 20000 cc1 v_temp file tmp.profile #units box

fix 7 qin langevin 315.0 315.0 50.0 123456 tally yes
fix 8 qout langevin 285.0 285.0 50.0 123457 tally yes

log en_ex.log
