LAMMPS (19 Nov 2024)
OMP_NUM_THREADS environment is not set. Defaulting to 1 thread. (src/comm.cpp:99)
  using 1 OpenMP thread(s) per MPI task
units real
atom_style full
bond_style harmonic
angle_style harmonic
dihedral_style opls
improper_style cvff
special_bonds lj/coul 0 0 0.5
pair_style lj/cut 11.0
pair_modify mix geometric
read_data amorp_bldr.data
Reading data file ...
  orthogonal box = (0 0 0) to (73.9549 73.9549 73.9549)
  1 by 1 by 1 MPI processor grid
  reading atoms ...
  10 atoms
Finding 1-2 1-3 1-4 neighbors ...
  special bond factors lj:    0        0        0.5     
  special bond factors coul:  0        0        0.5     
     0 = max # of 1-2 neighbors
     0 = max # of 1-3 neighbors
     0 = max # of 1-4 neighbors
     1 = max # of special neighbors
  special bonds CPU = 0.000 seconds
  read_data CPU = 0.002 seconds

dump 1 all custom 1000 amorp_bldr.custom.gz id xu yu zu
dump_modify 1 sort id
min_style fire
minimize 1.0e-6 1.0e-8 1000000 10000000
Generated 0 of 0 mixed pair_coeff terms from geometric mixing rule
Neighbor list info ...
  update: every = 1 steps, delay = 0 steps, check = yes
  max neighbors/atom: 2000, page size: 100000
  master list distance cutoff = 13
  ghost atom cutoff = 13
  binsize = 6.5, bins = 12 12 12
  1 neighbor lists, perpetual/occasional/extra = 1 0 0
  (1) pair lj/cut, perpetual
      attributes: half, newton on
      pair build: half/bin/newton
      stencil: half/bin/3d
      bin: standard
  Parameters for fire:
    dmax  delaystep dtgrow dtshrink alpha0 alphashrink tmax tmin   integrator   halfstepback   abcfire  
     0.1     20      1.1     0.5     0.25     0.99      10  0.02 eulerimplicit      yes          no     
Per MPI rank memory allocation (min/avg/max) = 6.017 | 6.017 | 6.017 Mbytes
   Step          Temp          E_pair         E_mol          TotEng         Press     
         0   0             -0.056174429    0             -0.056174429   -0.017955047  
       999   0.0015629359  -0.46799991     0             -0.46795798     0.00010176157
Loop time of 0.00109115 on 1 procs for 999 steps with 10 atoms

99.4% CPU use with 1 MPI tasks x 1 OpenMP threads

Minimization stats:
  Stopping criterion = energy tolerance
  Energy initial, next-to-last, final = 
    -0.0561744293136561 -0.467999622258383 -0.467999912618289
  Force two-norm initial, final = 0.07518201 0.00063612971
  Force max component initial, final = 0.052720841 0.00038116011
  Final line search alpha, max atom move = 0 0
  Iterations, force evaluations = 999 1002

MPI task timing breakdown:
Section |  min time  |  avg time  |  max time  |%varavg| %total
---------------------------------------------------------------
Pair    | 0.00014747 | 0.00014747 | 0.00014747 |   0.0 | 13.52
Bond    | 9.3359e-05 | 9.3359e-05 | 9.3359e-05 |   0.0 |  8.56
Neigh   | 8.071e-06  | 8.071e-06  | 8.071e-06  |   0.0 |  0.74
Comm    | 0.00025122 | 0.00025122 | 0.00025122 |   0.0 | 23.02
Output  | 0          | 0          | 0          |   0.0 |  0.00
Modify  | 0          | 0          | 0          |   0.0 |  0.00
Other   |            | 0.000591   |            |       | 54.17

Nlocal:             10 ave          10 max          10 min
Histogram: 1 0 0 0 0 0 0 0 0 0
Nghost:             20 ave          20 max          20 min
Histogram: 1 0 0 0 0 0 0 0 0 0
Neighs:              2 ave           2 max           2 min
Histogram: 1 0 0 0 0 0 0 0 0 0

Total # of neighbors = 2
Ave neighs/atom = 0.2
Ave special neighs/atom = 0
Neighbor list builds = 2
Dangerous builds = 0

timestep 1.0
thermo_modify flush yes
thermo 1000
velocity all create 300 1087088898
fix 2a all temp/berendsen 300 300 100
fix 2b all nve
run 5000
Generated 0 of 0 mixed pair_coeff terms from geometric mixing rule
Per MPI rank memory allocation (min/avg/max) = 7.267 | 7.267 | 7.267 Mbytes
   Step          Temp          E_pair         E_mol          TotEng         Press     
       999   300           -0.46799991     0              7.5801872      0.9096543    
      1000   299.9999      -0.46799727     0              7.5801872      0.90972164   
      2000   299.90964     -0.3563233      0              7.6894397      0.84736761   
      3000   299.65862     -0.28794162     0              7.7510871      0.84135869   
      4000   300.57723     -0.41405439     0              7.6496183      0.94124152   
      5000   299.48498     -0.36066971     0              7.6737009      0.83060177   
      5999   299.64267     -0.31082352     0              7.7277773      0.84830611   
Loop time of 0.00566665 on 1 procs for 5000 steps with 10 atoms

Performance: 76235.451 ns/day, 0.000 hours/ns, 882354.758 timesteps/s, 8.824 Matom-step/s
97.4% CPU use with 1 MPI tasks x 1 OpenMP threads

MPI task timing breakdown:
Section |  min time  |  avg time  |  max time  |%varavg| %total
---------------------------------------------------------------
Pair    | 0.00067896 | 0.00067896 | 0.00067896 |   0.0 | 11.98
Bond    | 0.00035175 | 0.00035175 | 0.00035175 |   0.0 |  6.21
Neigh   | 0.00012343 | 0.00012343 | 0.00012343 |   0.0 |  2.18
Comm    | 0.0012057  | 0.0012057  | 0.0012057  |   0.0 | 21.28
Output  | 0.00022264 | 0.00022264 | 0.00022264 |   0.0 |  3.93
Modify  | 0.0017272  | 0.0017272  | 0.0017272  |   0.0 | 30.48
Other   |            | 0.001357   |            |       | 23.95

Nlocal:             10 ave          10 max          10 min
Histogram: 1 0 0 0 0 0 0 0 0 0
Nghost:             10 ave          10 max          10 min
Histogram: 1 0 0 0 0 0 0 0 0 0
Neighs:              3 ave           3 max           3 min
Histogram: 1 0 0 0 0 0 0 0 0 0

Total # of neighbors = 3
Ave neighs/atom = 0.3
Ave special neighs/atom = 0
Neighbor list builds = 34
Dangerous builds = 0
unfix 2b
unfix 2a

quit 0
