LAMMPS Description # full

5 atoms
4 bonds
6 angles
0 dihedrals
0 impropers

2 atom types
1 bond types
1 angle types
0 dihedral types
0 improper types

0 6.2112 xlo xhi
0 6.2112 ylo yhi
0 6.2112 zlo zhi

Masses

1 15.0350 # C CH3 Neopentane 85 #
2 12.0110 # C C Neopentane 90 #

Pair Coeffs

1 0.1450 3.9600
2 0.0500 3.8000

Bond Coeffs

1 260.0000 1.5260

Angle Coeffs

1 40.0000 109.5000

Atoms

1 1 1 0.0000 1.8658 3.9002 1.3518
2 1 2 0.0000 1.1854 3.8718 2.7174
3 1 1 0.0000 -0.1710 3.1832 2.5964
4 1 1 0.0000 0.9925 5.2858 3.2577
5 1 1 0.0000 2.0751 3.0791 3.6707

Bonds

1 1 1 2
2 1 2 3
3 1 2 4
4 1 2 5

Angles

1 1 1 2 3
2 1 1 2 4
3 1 1 2 5
4 1 3 2 4
5 1 3 2 5
6 1 4 2 5

