LAMMPS Description # full

100 atoms
0 bonds
0 angles
0 dihedrals
0 impropers

1 atom types
0 bond types
0 angle types
0 dihedral types
0 improper types

0 20.0000 xlo xhi
0 20.0000 ylo yhi
0 20.0000 zlo zhi

Masses

1 39.9480 # Argon Atom Ar 211 #

Pair Coeffs

1 0.2340 3.4010

Atoms

1 1 1 0.0000 3.0002 11.8503 17.0135
2 2 1 0.0000 -0.9998 11.8503 1.0135
3 3 1 0.0000 -0.9998 11.8503 13.0135
4 4 1 0.0000 -0.9998 -0.1497 5.0135
5 5 1 0.0000 3.0002 7.8503 1.0135
6 6 1 0.0000 3.0002 7.8503 5.0135
7 7 1 0.0000 11.0002 7.8503 13.0135
8 8 1 0.0000 11.0002 -4.1497 1.0135
9 9 1 0.0000 11.0002 7.8503 1.0135
10 10 1 0.0000 -0.9998 -0.1497 13.0135
11 11 1 0.0000 3.0002 3.8503 9.0135
12 12 1 0.0000 -0.9998 7.8503 17.0135
13 13 1 0.0000 11.0002 -0.1497 1.0135
14 14 1 0.0000 11.0002 -4.1497 17.0135
15 15 1 0.0000 11.0002 7.8503 17.0135
16 16 1 0.0000 11.0002 -0.1497 5.0135
17 17 1 0.0000 -0.9998 3.8503 1.0135
18 18 1 0.0000 11.0002 -4.1497 13.0135
19 19 1 0.0000 11.0002 11.8503 9.0135
20 20 1 0.0000 -4.9998 -4.1497 9.0135
21 21 1 0.0000 3.0002 -4.1497 13.0135
22 22 1 0.0000 11.0002 11.8503 13.0135
23 23 1 0.0000 11.0002 3.8503 1.0135
24 24 1 0.0000 3.0002 -0.1497 5.0135
25 25 1 0.0000 7.0002 7.8503 1.0135
26 26 1 0.0000 3.0002 -4.1497 5.0135
27 27 1 0.0000 7.0002 -0.1497 13.0135
28 28 1 0.0000 -4.9998 7.8503 9.0135
29 29 1 0.0000 7.0002 11.8503 1.0135
30 30 1 0.0000 7.0002 -4.1497 13.0135
31 31 1 0.0000 -0.9998 11.8503 5.0135
32 32 1 0.0000 3.0002 7.8503 17.0135
33 33 1 0.0000 -0.9998 7.8503 9.0135
34 34 1 0.0000 3.0002 -4.1497 17.0135
35 35 1 0.0000 11.0002 -4.1497 9.0135
36 36 1 0.0000 11.0002 7.8503 9.0135
37 37 1 0.0000 3.0002 -0.1497 1.0135
38 38 1 0.0000 7.0002 11.8503 17.0135
39 39 1 0.0000 11.0002 7.8503 5.0135
40 40 1 0.0000 3.0002 11.8503 13.0135
41 41 1 0.0000 -4.9998 3.8503 1.0135
42 42 1 0.0000 3.0002 -0.1497 17.0135
43 43 1 0.0000 -0.9998 -0.1497 9.0135
44 44 1 0.0000 7.0002 -0.1497 9.0135
45 45 1 0.0000 -0.9998 3.8503 13.0135
46 46 1 0.0000 -4.9998 7.8503 17.0135
47 47 1 0.0000 11.0002 11.8503 17.0135
48 48 1 0.0000 -0.9998 -4.1497 9.0135
49 49 1 0.0000 -0.9998 3.8503 5.0135
50 50 1 0.0000 3.0002 -0.1497 13.0135
51 51 1 0.0000 -0.9998 3.8503 17.0135
52 52 1 0.0000 7.0002 -4.1497 9.0135
53 53 1 0.0000 7.0002 7.8503 9.0135
54 54 1 0.0000 7.0002 3.8503 13.0135
55 55 1 0.0000 -0.9998 7.8503 1.0135
56 56 1 0.0000 7.0002 3.8503 17.0135
57 57 1 0.0000 3.0002 7.8503 9.0135
58 58 1 0.0000 7.0002 7.8503 5.0135
59 59 1 0.0000 -4.9998 11.8503 13.0135
60 60 1 0.0000 -0.9998 -0.1497 17.0135
61 61 1 0.0000 7.0002 -0.1497 1.0135
62 62 1 0.0000 11.0002 3.8503 5.0135
63 63 1 0.0000 -4.9998 -4.1497 17.0135
64 64 1 0.0000 7.0002 3.8503 1.0135
65 65 1 0.0000 -4.9998 7.8503 1.0135
66 66 1 0.0000 -0.9998 7.8503 5.0135
67 67 1 0.0000 3.0002 -4.1497 9.0135
68 68 1 0.0000 -0.9998 -4.1497 5.0135
69 69 1 0.0000 -0.9998 7.8503 13.0135
70 70 1 0.0000 -4.9998 11.8503 17.0135
71 71 1 0.0000 7.0002 11.8503 13.0135
72 72 1 0.0000 11.0002 3.8503 13.0135
73 73 1 0.0000 7.0002 11.8503 5.0135
74 74 1 0.0000 -0.9998 11.8503 17.0135
75 75 1 0.0000 -4.9998 11.8503 5.0135
76 76 1 0.0000 3.0002 11.8503 1.0135
77 77 1 0.0000 -4.9998 -4.1497 13.0135
78 78 1 0.0000 11.0002 3.8503 9.0135
79 79 1 0.0000 -0.9998 -0.1497 1.0135
80 80 1 0.0000 11.0002 11.8503 5.0135
81 81 1 0.0000 -0.9998 11.8503 9.0135
82 82 1 0.0000 7.0002 7.8503 13.0135
83 83 1 0.0000 -4.9998 -0.1497 13.0135
84 84 1 0.0000 7.0002 -0.1497 5.0135
85 85 1 0.0000 3.0002 3.8503 1.0135
86 86 1 0.0000 -4.9998 -4.1497 1.0135
87 87 1 0.0000 11.0002 3.8503 17.0135
88 88 1 0.0000 3.0002 -0.1497 9.0135
89 89 1 0.0000 -4.9998 11.8503 9.0135
90 90 1 0.0000 3.0002 3.8503 5.0135
91 91 1 0.0000 3.0002 3.8503 13.0135
92 92 1 0.0000 -4.9998 -0.1497 9.0135
93 93 1 0.0000 11.0002 11.8503 1.0135
94 94 1 0.0000 -4.9998 3.8503 13.0135
95 95 1 0.0000 7.0002 3.8503 5.0135
96 96 1 0.0000 7.0002 7.8503 17.0135
97 97 1 0.0000 7.0002 11.8503 9.0135
98 98 1 0.0000 7.0002 3.8503 9.0135
99 99 1 0.0000 3.0002 7.8503 13.0135
100 100 1 0.0000 11.0002 -0.1497 13.0135

