ITEM: TIMESTEP
0
ITEM: NUMBER OF ATOMS
100
ITEM: BOX BOUNDS pp pp pp
0.0000000000000000e+00 1.6064779999999999e+02
0.0000000000000000e+00 1.6064779999999999e+02
0.0000000000000000e+00 1.6064779999999999e+02
ITEM: ATOMS id xu yu zu
1 130.627 96.2323 103.769
2 136.538 95.9722 81.0097
3 153.629 75.6619 79.0336
4 147.337 90.8955 67.1153
5 131.094 79.1963 83.544
6 148.985 86.8632 83.8206
7 129.103 124.353 70.4126
8 117.71 105.267 69.6015
9 143.19 119.865 50.8245
10 73.877 129.403 21.1232
11 89.1182 137.057 -19.4845
12 89.1638 160.695 -23.8346
13 70.9264 113.231 0.6993
14 81.8046 151.227 37.3575
15 75.8307 126.443 18.9296
16 66.2282 124.976 -10.7992
17 76.6954 140.887 -11.3447
18 119.487 -4.0114 28.7085
19 77.5509 34.3211 144.758
20 45.4884 83.1226 117.218
21 44.1874 54.5025 159.455
22 45.9441 72.183 126.341
23 36.4606 57.4073 154.457
24 47.7307 52.3352 156.247
25 75.5942 62.8223 143.586
26 53.8109 71.1004 122.019
27 41.3423 65.3702 124.348
28 15.8115 90.6335 82.6701
29 -7.1719 81.0498 87.6843
30 75.2306 47.015 35.1918
31 160.935 63.0786 88.2216
32 129.164 19.8783 99.4551
33 155.818 73.8023 119.23
34 130.708 55.3993 88.7835
35 104.544 62.7535 120.054
36 134.147 64.5452 134.603
37 139.525 38.2255 85.18
38 147.05 45.7849 114.552
39 17.2008 90.9073 11.2938
40 72.9827 84.6199 60.402
41 96.2215 15.0905 46.0311
42 18.5166 14.3438 32.0086
43 24.4773 29.4357 33.002
44 34.5894 18.2166 10.4847
45 20.3275 -31.4266 39.7923
46 11.7597 8.5573 8.9539
47 9.4373 -28.9566 1.2773
48 31.1408 -12.0919 53.069
49 42.2669 31.7835 24.2798
50 11.6349 -17.963 32.3928
51 44.2349 -18.9241 26.2408
52 32.0015 1.3581 39.9211
53 44.8729 93.6524 143.786
54 46.6489 112.578 131.001
55 78.7522 2.3494 104.72
56 63.6916 13.08 79.8321
57 78.0738 -13.1883 71.6873
58 -0.5813 66.0345 99.9056
59 16.5655 148.93 79.8727
60 -11.073 129.978 86.6783
61 129.132 67.9867 146.053
62 8.5516 146.642 4.616
63 51.95 130.962 15.1179
64 35.3955 135.743 -12.927
65 62.5817 -3.8414 13.6867
66 47.3489 138.634 63.8268
67 60.9426 114.964 53.6414
68 84.698 128.574 56.494
69 88.2555 18.9704 83.5834
70 143.72 -6.4755 62.0069
71 98.4113 11.7429 103.912
72 119.962 11.1698 98.8677
73 95.7551 -27.2095 86.589
74 91.5906 -6.0324 91.912
75 115.009 -4.6098 88.9096
76 109.533 75.0653 -13.9548
77 101.882 56.5137 11.9157
78 17.2594 90.4488 128.352
79 1.2032 98.5426 131.11
80 10.4661 94.0267 110.606
81 4.1206 87.3453 119.115
82 10.3086 98.0188 124.562
83 2.4692 67.4158 149.292
84 6.6064 94.5477 144.686
85 -0.6414 83.5491 125.194
86 171.628 117.613 113.327
87 134.894 135.241 151.793
88 128.248 139.008 150.063
89 125.769 126.212 155.496
90 144.198 129.452 127.533
91 37.991 59.0616 75.7756
92 40.4693 53.3065 36.6701
93 8.8969 79.2555 70.8586
94 -2.6614 85.0735 68.1677
95 32.5165 84.7192 72.2951
96 34.4148 72.0169 48.5259
97 70.6583 93.9352 102.639
98 85.9955 90.7489 126.594
99 95.2468 63.2879 114.486
100 54.8478 64.2055 90.1239
ITEM: TIMESTEP
1000
