LAMMPS Description # atomic

8 atoms

1 atom types

0 5.1592 xlo xhi
0 5.1592 ylo yhi
0 5.1592 zlo zhi
0.0000 0.0000 0.0000 xy xz yz

Masses

1 28.0860 # Si #

Atoms

1 1 0.0000 0.0000 0.0000
2 1 0.0000 2.5796 2.5796
3 1 1.2898 1.2898 1.2898
4 1 1.2898 3.8694 3.8694
5 1 2.5796 0.0000 2.5796
6 1 2.5796 2.5796 0.0000
7 1 3.8694 1.2898 3.8694
8 1 3.8694 3.8694 1.2898

