LAMMPS (19 Nov 2024)
OMP_NUM_THREADS environment is not set. Defaulting to 1 thread. (src/comm.cpp:99)
  using 1 OpenMP thread(s) per MPI task
units metal
atom_style atomic
pair_style sw
read_data crystal_builder.data
Reading data file ...
  triclinic box = (0 0 0) to (5.1592 5.1592 5.1592) with tilt (0 0 0)
  1 by 1 by 1 MPI processor grid
  reading atoms ...
  8 atoms
  read_data CPU = 0.001 seconds

pair_coeff * * /Users/zhteg4/git/nemd/module/lammps/lammps/potentials/Si.sw Si
Reading sw potential file /Users/zhteg4/git/nemd/module/lammps/lammps/potentials/Si.sw with DATE: 2007-06-11
dump 1 all custom 1000 crystal_builder.custom.gz id xu yu zu
dump_modify 1 sort id
min_style fire
minimize 1.0e-6 1.0e-8 1000000 10000000
Neighbor list info ...
  update: every = 1 steps, delay = 0 steps, check = yes
  max neighbors/atom: 2000, page size: 100000
  master list distance cutoff = 5.77118
  ghost atom cutoff = 5.77118
  binsize = 2.88559, bins = 2 2 2
  1 neighbor lists, perpetual/occasional/extra = 1 0 0
  (1) pair sw, perpetual
      attributes: full, newton on
      pair build: full/bin/atomonly
      stencil: full/bin/3d
      bin: standard
  Parameters for fire:
    dmax  delaystep dtgrow dtshrink alpha0 alphashrink tmax tmin   integrator   halfstepback   abcfire  
     0.1     20      1.1     0.5     0.25     0.99      10  0.02 eulerimplicit      yes          no     
Per MPI rank memory allocation (min/avg/max) = 2.958 | 2.958 | 2.958 Mbytes
   Step          Temp          E_pair         E_mol          TotEng         Press     
         0   0             -33.430568      0             -33.430568      195975.19    
         1   2.4983883e-31 -33.430568      0             -33.430568      195975.19    
Loop time of 0.000226579 on 1 procs for 1 steps with 8 atoms

98.0% CPU use with 1 MPI tasks x 1 OpenMP threads

Minimization stats:
  Stopping criterion = force tolerance
  Energy initial, next-to-last, final = 
     -33.4305681163099  -33.4305681163099  -33.4305681163099
  Force two-norm initial, final = 1.1472038e-15 1.1472038e-15
  Force max component initial, final = 7.7715612e-16 7.7715612e-16
  Final line search alpha, max atom move = 0 0
  Iterations, force evaluations = 1 2

MPI task timing breakdown:
Section |  min time  |  avg time  |  max time  |%varavg| %total
---------------------------------------------------------------
Pair    | 0.00019571 | 0.00019571 | 0.00019571 |   0.0 | 86.38
Neigh   | 0          | 0          | 0          |   0.0 |  0.00
Comm    | 5.699e-06  | 5.699e-06  | 5.699e-06  |   0.0 |  2.52
Output  | 0          | 0          | 0          |   0.0 |  0.00
Modify  | 0          | 0          | 0          |   0.0 |  0.00
Other   |            | 2.517e-05  |            |       | 11.11

Nlocal:              8 ave           8 max           8 min
Histogram: 1 0 0 0 0 0 0 0 0 0
Nghost:            272 ave         272 max         272 min
Histogram: 1 0 0 0 0 0 0 0 0 0
Neighs:              0 ave           0 max           0 min
Histogram: 1 0 0 0 0 0 0 0 0 0
FullNghs:          368 ave         368 max         368 min
Histogram: 1 0 0 0 0 0 0 0 0 0

Total # of neighbors = 368
Ave neighs/atom = 46
Neighbor list builds = 0
Dangerous builds = 0
run 0
WARNING: No fixes with time integration, atoms won't move (src/verlet.cpp:60)
Per MPI rank memory allocation (min/avg/max) = 4.209 | 4.209 | 4.209 Mbytes
   Step          Temp          E_pair         E_mol          TotEng         Press     
         1   2.4983883e-31 -33.430568      0             -33.430568      195975.19    
Loop time of 8.76e-07 on 1 procs for 0 steps with 8 atoms

114.2% CPU use with 1 MPI tasks x 1 OpenMP threads

MPI task timing breakdown:
Section |  min time  |  avg time  |  max time  |%varavg| %total
---------------------------------------------------------------
Pair    | 0          | 0          | 0          |   0.0 |  0.00
Neigh   | 0          | 0          | 0          |   0.0 |  0.00
Comm    | 0          | 0          | 0          |   0.0 |  0.00
Output  | 0          | 0          | 0          |   0.0 |  0.00
Modify  | 0          | 0          | 0          |   0.0 |  0.00
Other   |            | 8.76e-07   |            |       |100.00

Nlocal:              8 ave           8 max           8 min
Histogram: 1 0 0 0 0 0 0 0 0 0
Nghost:            272 ave         272 max         272 min
Histogram: 1 0 0 0 0 0 0 0 0 0
Neighs:              0 ave           0 max           0 min
Histogram: 1 0 0 0 0 0 0 0 0 0
FullNghs:          368 ave         368 max         368 min
Histogram: 1 0 0 0 0 0 0 0 0 0

Total # of neighbors = 368
Ave neighs/atom = 46
Neighbor list builds = 0
Dangerous builds = 0
quit 0
