LAMMPS Description # full

132 atoms
121 bonds
110 angles
99 dihedrals
0 impropers

2 atom types
2 bond types
2 angle types
1 dihedral types
0 improper types

0 14.1424 xlo xhi
0 14.1424 ylo yhi
0 14.1424 zlo zhi

Masses

1 15.0350 # C CH3 n-Butane 83 #
2 14.0270 # C CH2 n-Butane 86 #

Pair Coeffs

1 0.1750 3.9050
2 0.1180 3.9050

Bond Coeffs

1 260.0000 1.5260
2 260.0000 1.5260

Angle Coeffs

1 63.0000 112.4000
2 63.0000 112.4000

Dihedral Coeffs

1 0.0000 0.0000 4.0000 0.0000

Atoms

1 1 1 0.0000 0.2120 13.4670 3.6775
2 1 2 0.0000 0.5687 12.5891 4.8736
3 1 2 0.0000 2.0254 12.1351 4.8480
4 1 2 0.0000 2.3717 11.2250 6.0229
5 1 2 0.0000 3.8284 10.7711 5.9972
6 1 2 0.0000 4.1644 9.8295 7.1501
7 1 2 0.0000 5.6211 9.3756 7.1244
8 1 2 0.0000 5.9472 8.4030 8.2542
9 1 2 0.0000 7.4039 7.9491 8.2285
10 1 2 0.0000 7.7200 6.9462 9.3344
11 1 2 0.0000 9.1767 6.4923 9.3087
12 1 1 0.0000 9.4832 5.4598 10.3898
13 2 1 0.0000 8.2248 8.7397 15.6494
14 2 2 0.0000 7.8742 7.2564 15.7229
15 2 2 0.0000 7.2199 6.7492 14.4410
16 2 2 0.0000 6.8334 5.2756 14.5290
17 2 2 0.0000 6.1791 4.7685 13.2471
18 2 2 0.0000 5.7569 3.3056 13.3491
19 2 2 0.0000 5.1025 2.7984 12.0672
20 2 2 0.0000 4.6448 1.3473 12.1827
21 2 2 0.0000 3.9904 0.8402 10.9008
22 2 2 0.0000 3.4972 -0.5982 11.0293
23 2 2 0.0000 2.8429 -1.1053 9.7474
24 2 1 0.0000 2.3145 -2.5300 9.8885
25 3 1 0.0000 -2.8045 7.3918 12.2664
26 3 2 0.0000 -1.6184 8.1087 11.6278
27 3 2 0.0000 -0.7898 7.1847 10.7399
28 3 2 0.0000 0.4186 7.8915 10.1326
29 3 2 0.0000 1.2472 6.9676 9.2447
30 3 2 0.0000 2.4773 7.6634 8.6691
31 3 2 0.0000 3.3058 6.7394 7.7811
32 3 2 0.0000 4.5568 7.4235 7.2373
33 3 2 0.0000 5.3854 6.4995 6.3493
34 3 2 0.0000 6.6566 7.1709 5.8375
35 3 2 0.0000 7.4851 6.2469 4.9495
36 3 1 0.0000 8.7757 6.9049 4.4698
37 4 1 0.0000 10.8664 17.8220 8.9130
38 4 2 0.0000 11.6437 16.6568 8.3076
39 4 2 0.0000 11.2093 15.3094 8.8772
40 4 2 0.0000 12.0136 14.1478 8.3008
41 4 2 0.0000 11.5792 12.8004 8.8704
42 4 2 0.0000 12.4098 11.6428 8.3237
43 4 2 0.0000 11.9753 10.2955 8.8934
44 4 2 0.0000 12.8314 9.1425 8.3770
45 4 2 0.0000 12.3969 7.7951 8.9467
46 4 2 0.0000 13.2775 6.6473 8.4612
47 4 2 0.0000 12.8431 5.3000 9.0308
48 4 1 0.0000 13.7475 4.1578 8.5768
49 5 1 0.0000 3.3055 1.6005 7.0849
50 5 2 0.0000 3.1324 3.1034 7.2853
51 5 2 0.0000 2.0723 3.6950 6.3607
52 5 2 0.0000 1.9270 5.2043 6.5332
53 5 2 0.0000 0.8670 5.7959 5.6086
54 5 2 0.0000 0.7493 7.3105 5.7530
55 5 2 0.0000 -0.3108 7.9021 4.8283
56 5 2 0.0000 -0.4011 9.4211 4.9440
57 5 2 0.0000 -1.4611 10.0127 4.0194
58 5 2 0.0000 -1.5243 11.5349 4.1062
59 5 2 0.0000 -2.5844 12.1266 3.1815
60 5 1 0.0000 -2.6207 13.6511 3.2389
61 6 1 0.0000 8.0923 17.1379 3.5858
62 6 2 0.0000 6.9118 16.4066 4.2185
63 6 2 0.0000 7.3465 15.4463 5.3220
64 6 2 0.0000 6.1702 14.6859 5.9278
65 6 2 0.0000 6.6049 13.7257 7.0313
66 6 2 0.0000 5.4340 12.9366 7.6099
67 6 2 0.0000 5.8686 11.9763 8.7134
68 6 2 0.0000 4.7041 11.1588 9.2649
69 6 2 0.0000 5.1387 10.1985 10.3684
70 6 2 0.0000 3.9816 9.3530 10.8925
71 6 2 0.0000 4.4162 8.3927 11.9960
72 6 1 0.0000 3.2676 7.5195 12.4928
73 7 1 0.0000 4.7186 -3.3243 -1.9126
74 7 2 0.0000 4.8791 -2.0848 -1.0370
75 7 2 0.0000 6.3369 -1.6554 -0.8987
76 7 2 0.0000 6.5014 -0.4396 0.0087
77 7 2 0.0000 7.9592 -0.0101 0.1470
78 7 2 0.0000 8.1279 1.1812 1.0856
79 7 2 0.0000 9.5857 1.6107 1.2238
80 7 2 0.0000 9.7590 2.7767 2.1929
81 7 2 0.0000 11.2168 3.2061 2.3311
82 7 2 0.0000 11.3950 4.3460 3.3299
83 7 2 0.0000 12.8528 4.7755 3.4681
84 7 1 0.0000 13.0361 5.8885 4.4959
85 8 1 0.0000 3.8733 -1.3042 2.9953
86 8 2 0.0000 4.2008 0.1279 2.5824
87 8 2 0.0000 2.9480 0.9724 2.3685
88 8 2 0.0000 3.2744 2.3932 1.9174
89 8 2 0.0000 2.0216 3.2377 1.7035
90 8 2 0.0000 2.3463 4.6463 1.2145
91 8 2 0.0000 1.0934 5.4909 1.0006
92 8 2 0.0000 1.4157 6.8864 0.4740
93 8 2 0.0000 0.1628 7.7309 0.2601
94 8 2 0.0000 0.4821 9.1126 -0.3036
95 8 2 0.0000 -0.7707 9.9571 -0.5176
96 8 1 0.0000 -0.4551 11.3240 -1.1181
97 9 1 0.0000 14.3744 14.8831 -3.4300
98 9 2 0.0000 12.9822 14.2938 -3.2222
99 9 2 0.0000 12.7547 13.8317 -1.7857
100 9 2 0.0000 11.3770 13.2064 -1.5872
101 9 2 0.0000 11.1495 12.7444 -0.1507
102 9 2 0.0000 9.7872 12.0835 0.0388
103 9 2 0.0000 9.5598 11.6214 1.4753
104 9 2 0.0000 8.2139 10.9253 1.6560
105 9 2 0.0000 7.9865 10.4633 3.0925
106 9 2 0.0000 6.6581 9.7323 3.2648
107 9 2 0.0000 6.4306 9.2703 4.7013
108 9 1 0.0000 5.1207 8.5050 4.8655
109 10 1 0.0000 -0.5748 1.4765 5.4756
110 10 2 0.0000 0.2787 2.5493 6.1457
111 10 2 0.0000 0.5888 2.2194 7.6030
112 10 2 0.0000 1.4090 3.3110 8.2845
113 10 2 0.0000 1.7191 2.9811 9.7418
114 10 2 0.0000 2.5054 4.0904 10.4346
115 10 2 0.0000 2.8155 3.7605 11.8919
116 10 2 0.0000 3.5674 4.8866 12.5957
117 10 2 0.0000 3.8774 4.5567 14.0530
118 10 2 0.0000 4.5945 5.6985 14.7678
119 10 2 0.0000 4.9045 5.3686 16.2251
120 10 1 0.0000 5.5861 6.5251 16.9508
121 11 1 0.0000 8.2812 10.6150 13.1032
122 11 2 0.0000 9.1602 10.9754 11.9090
123 11 2 0.0000 8.7735 10.2060 10.6492
124 11 2 0.0000 9.6775 10.5372 9.4651
125 11 2 0.0000 9.2908 9.7678 8.2053
126 11 2 0.0000 10.2189 10.0691 7.0321
127 11 2 0.0000 9.8323 9.2997 5.7722
128 11 2 0.0000 10.7837 9.5708 4.6103
129 11 2 0.0000 10.3971 8.8014 3.3505
130 11 2 0.0000 11.3709 9.0418 2.2005
131 11 2 0.0000 10.9843 8.2723 0.9406
132 11 1 0.0000 11.9797 8.4816 -0.1970

Bonds

1 1 1 2
2 2 3 4
3 2 5 6
4 2 7 8
5 2 9 10
6 1 11 12
7 2 2 3
8 2 4 5
9 2 6 7
10 2 8 9
11 2 10 11
12 1 13 14
13 2 15 16
14 2 17 18
15 2 19 20
16 2 21 22
17 1 23 24
18 2 14 15
19 2 16 17
20 2 18 19
21 2 20 21
22 2 22 23
23 1 25 26
24 2 27 28
25 2 29 30
26 2 31 32
27 2 33 34
28 1 35 36
29 2 26 27
30 2 28 29
31 2 30 31
32 2 32 33
33 2 34 35
34 1 37 38
35 2 39 40
36 2 41 42
37 2 43 44
38 2 45 46
39 1 47 48
40 2 38 39
41 2 40 41
42 2 42 43
43 2 44 45
44 2 46 47
45 1 49 50
46 2 51 52
47 2 53 54
48 2 55 56
49 2 57 58
50 1 59 60
51 2 50 51
52 2 52 53
53 2 54 55
54 2 56 57
55 2 58 59
56 1 61 62
57 2 63 64
58 2 65 66
59 2 67 68
60 2 69 70
61 1 71 72
62 2 62 63
63 2 64 65
64 2 66 67
65 2 68 69
66 2 70 71
67 1 73 74
68 2 75 76
69 2 77 78
70 2 79 80
71 2 81 82
72 1 83 84
73 2 74 75
74 2 76 77
75 2 78 79
76 2 80 81
77 2 82 83
78 1 85 86
79 2 87 88
80 2 89 90
81 2 91 92
82 2 93 94
83 1 95 96
84 2 86 87
85 2 88 89
86 2 90 91
87 2 92 93
88 2 94 95
89 1 97 98
90 2 99 100
91 2 101 102
92 2 103 104
93 2 105 106
94 1 107 108
95 2 98 99
96 2 100 101
97 2 102 103
98 2 104 105
99 2 106 107
100 1 109 110
101 2 111 112
102 2 113 114
103 2 115 116
104 2 117 118
105 1 119 120
106 2 110 111
107 2 112 113
108 2 114 115
109 2 116 117
110 2 118 119
111 1 121 122
112 2 123 124
113 2 125 126
114 2 127 128
115 2 129 130
116 1 131 132
117 2 122 123
118 2 124 125
119 2 126 127
120 2 128 129
121 2 130 131

Angles

1 1 1 2 3
2 2 4 3 2
3 2 3 4 5
4 2 6 5 4
5 2 5 6 7
6 2 8 7 6
7 2 7 8 9
8 2 10 9 8
9 2 9 10 11
10 1 12 11 10
11 1 13 14 15
12 2 16 15 14
13 2 15 16 17
14 2 18 17 16
15 2 17 18 19
16 2 20 19 18
17 2 19 20 21
18 2 22 21 20
19 2 21 22 23
20 1 24 23 22
21 1 25 26 27
22 2 28 27 26
23 2 27 28 29
24 2 30 29 28
25 2 29 30 31
26 2 32 31 30
27 2 31 32 33
28 2 34 33 32
29 2 33 34 35
30 1 36 35 34
31 1 37 38 39
32 2 40 39 38
33 2 39 40 41
34 2 42 41 40
35 2 41 42 43
36 2 44 43 42
37 2 43 44 45
38 2 46 45 44
39 2 45 46 47
40 1 48 47 46
41 1 49 50 51
42 2 52 51 50
43 2 51 52 53
44 2 54 53 52
45 2 53 54 55
46 2 56 55 54
47 2 55 56 57
48 2 58 57 56
49 2 57 58 59
50 1 60 59 58
51 1 61 62 63
52 2 64 63 62
53 2 63 64 65
54 2 66 65 64
55 2 65 66 67
56 2 68 67 66
57 2 67 68 69
58 2 70 69 68
59 2 69 70 71
60 1 72 71 70
61 1 73 74 75
62 2 76 75 74
63 2 75 76 77
64 2 78 77 76
65 2 77 78 79
66 2 80 79 78
67 2 79 80 81
68 2 82 81 80
69 2 81 82 83
70 1 84 83 82
71 1 85 86 87
72 2 88 87 86
73 2 87 88 89
74 2 90 89 88
75 2 89 90 91
76 2 92 91 90
77 2 91 92 93
78 2 94 93 92
79 2 93 94 95
80 1 96 95 94
81 1 97 98 99
82 2 100 99 98
83 2 99 100 101
84 2 102 101 100
85 2 101 102 103
86 2 104 103 102
87 2 103 104 105
88 2 106 105 104
89 2 105 106 107
90 1 108 107 106
91 1 109 110 111
92 2 112 111 110
93 2 111 112 113
94 2 114 113 112
95 2 113 114 115
96 2 116 115 114
97 2 115 116 117
98 2 118 117 116
99 2 117 118 119
100 1 120 119 118
101 1 121 122 123
102 2 124 123 122
103 2 123 124 125
104 2 126 125 124
105 2 125 126 127
106 2 128 127 126
107 2 127 128 129
108 2 130 129 128
109 2 129 130 131
110 1 132 131 130

Dihedrals

1 1 1 2 3 4
2 1 2 3 4 5
3 1 3 4 5 6
4 1 4 5 6 7
5 1 5 6 7 8
6 1 6 7 8 9
7 1 7 8 9 10
8 1 8 9 10 11
9 1 9 10 11 12
10 1 13 14 15 16
11 1 14 15 16 17
12 1 15 16 17 18
13 1 16 17 18 19
14 1 17 18 19 20
15 1 18 19 20 21
16 1 19 20 21 22
17 1 20 21 22 23
18 1 21 22 23 24
19 1 25 26 27 28
20 1 26 27 28 29
21 1 27 28 29 30
22 1 28 29 30 31
23 1 29 30 31 32
24 1 30 31 32 33
25 1 31 32 33 34
26 1 32 33 34 35
27 1 33 34 35 36
28 1 37 38 39 40
29 1 38 39 40 41
30 1 39 40 41 42
31 1 40 41 42 43
32 1 41 42 43 44
33 1 42 43 44 45
34 1 43 44 45 46
35 1 44 45 46 47
36 1 45 46 47 48
37 1 49 50 51 52
38 1 50 51 52 53
39 1 51 52 53 54
40 1 52 53 54 55
41 1 53 54 55 56
42 1 54 55 56 57
43 1 55 56 57 58
44 1 56 57 58 59
45 1 57 58 59 60
46 1 61 62 63 64
47 1 62 63 64 65
48 1 63 64 65 66
49 1 64 65 66 67
50 1 65 66 67 68
51 1 66 67 68 69
52 1 67 68 69 70
53 1 68 69 70 71
54 1 69 70 71 72
55 1 73 74 75 76
56 1 74 75 76 77
57 1 75 76 77 78
58 1 76 77 78 79
59 1 77 78 79 80
60 1 78 79 80 81
61 1 79 80 81 82
62 1 80 81 82 83
63 1 81 82 83 84
64 1 85 86 87 88
65 1 86 87 88 89
66 1 87 88 89 90
67 1 88 89 90 91
68 1 89 90 91 92
69 1 90 91 92 93
70 1 91 92 93 94
71 1 92 93 94 95
72 1 93 94 95 96
73 1 97 98 99 100
74 1 98 99 100 101
75 1 99 100 101 102
76 1 100 101 102 103
77 1 101 102 103 104
78 1 102 103 104 105
79 1 103 104 105 106
80 1 104 105 106 107
81 1 105 106 107 108
82 1 109 110 111 112
83 1 110 111 112 113
84 1 111 112 113 114
85 1 112 113 114 115
86 1 113 114 115 116
87 1 114 115 116 117
88 1 115 116 117 118
89 1 116 117 118 119
90 1 117 118 119 120
91 1 121 122 123 124
92 1 122 123 124 125
93 1 123 124 125 126
94 1 124 125 126 127
95 1 125 126 127 128
96 1 126 127 128 129
97 1 127 128 129 130
98 1 128 129 130 131
99 1 129 130 131 132

