LAMMPS Description # full

4 atoms
3 bonds
2 angles
1 dihedrals
0 impropers

2 atom types
2 bond types
1 angle types
1 dihedral types
0 improper types

0 5.7793 xlo xhi
0 5.7793 ylo yhi
0 5.7793 zlo zhi

Masses

1 15.0350 # C CH3 n-Butane 83 #
2 14.0270 # C CH2 n-Butane 86 #

Pair Coeffs

1 0.1750 3.9050
2 0.1180 3.9050

Bond Coeffs

1 260.0000 1.5260
2 260.0000 1.5260

Angle Coeffs

1 63.0000 112.4000

Dihedral Coeffs

1 0.0000 0.0000 4.0000 0.0000

Atoms

1 1 1 0.0000 4.8234 4.0698 1.7794
2 1 2 0.0000 3.4636 4.4689 2.3455
3 1 2 0.0000 2.3069 3.9870 1.4746
4 1 1 0.0000 2.7130 2.8435 0.5492

Bonds

1 2 2 3
2 1 1 2
3 1 3 4

Angles

1 1 3 2 1
2 1 2 3 4

Dihedrals

1 1 1 2 3 4

