ITEM: TIMESTEP
0
ITEM: NUMBER OF ATOMS
216
ITEM: BOX BOUNDS xy xz yz pp pp pp
0.0000000000000000e+00 1.6295700000000000e+01 0.0000000000000000e+00
0.0000000000000000e+00 1.6295700000000000e+01 0.0000000000000000e+00
0.0000000000000000e+00 1.6295700000000000e+01 0.0000000000000000e+00
ITEM: ATOMS id xu yu zu fx fy fz
1    0.010000000000000    0.000000000000000    0.000000000000000   -0.176932403996482   -0.000027119222156   -0.000027119222151
4    0.000000000000000    2.715899999999999    2.715899999999999   -0.002881271048926   -0.000470447955730   -0.000470447955736
19    1.357999999999999    1.357999999999999    1.357999999999999    0.044941671347456    0.027970557791223    0.027970557791223
37    2.715899999999999    0.000000000000000    2.715899999999999    0.001653269432682    0.001396070879266    0.001661321373666
40    2.715899999999999    2.715899999999999    0.000000000000000    0.001653269432687    0.001661321373665    0.001396070879276
73    5.431900000000000    0.000000000000000    0.000000000000000   -0.000028209943370   -0.000028209943393   -0.000028209943389
76    5.431900000000000    2.715899999999999    2.715899999999999   -0.000028271405543    0.000941049649887    0.000941049649887
91    6.789900000000000    1.357999999999999    1.357999999999999   -0.000941037490408   -0.000941037490402   -0.000941037490402
109    8.147800000000000    0.000000000000000    2.715899999999999    0.000941049649870   -0.000028271405568    0.000941049649890
112    8.147800000000000    2.715899999999999    0.000000000000000    0.000941049649875    0.000941049649884   -0.000028271405562
145   10.863799999999999    0.000000000000000    0.000000000000000   -0.000028209943362   -0.000028209943391   -0.000028209943391
148   10.863799999999999    2.715899999999999    2.715899999999999   -0.000028271405531    0.000941049649887    0.000941049649887
163   12.221800000000000    1.357999999999999    1.357999999999999   -0.000941037490444   -0.000941037490402   -0.000941037490402
181   13.579699999999995    0.000000000000000    2.715899999999999    0.001639614484400    0.001368587562742    0.000250068020386
184   13.579699999999995    2.715899999999999    0.000000000000000    0.001639614484402    0.000250068020384    0.001368587562744
7    0.000000000000000    5.431900000000000    0.000000000000000   -0.000028209943396   -0.000028209943363   -0.000028209943396
43    2.715899999999999    5.431900000000000    2.715899999999999    0.000941049649887   -0.000028271405543    0.000941049649887
58    4.073900000000000    4.073900000000000    1.357999999999999    0.000028218013567    0.000028218013567   -0.000941016487577
79    5.431900000000000    5.431900000000000    0.000000000000000   -0.000028209943369   -0.000028209943369   -0.000028209943385
115    8.147800000000000    5.431900000000000    2.715899999999999    0.000941049649872   -0.000028271405537    0.000941049649887
130    9.505800000000001    4.073900000000000    1.357999999999999    0.000028218013569    0.000028218013570   -0.000941016487579
151   10.863799999999999    5.431900000000000    0.000000000000000   -0.000028209943363   -0.000028209943368   -0.000028209943385
187   13.579699999999995    5.431900000000000    2.715899999999999    0.000941049649945   -0.000028271405542    0.000941049649888
202   14.937700000000000    4.073900000000000    1.357999999999999    0.000028218013557    0.000028218013564   -0.000941016487574
10    0.000000000000000    8.147800000000000    2.715899999999999   -0.000028271405565    0.000941049649872    0.000941049649888
25    1.357999999999999    6.789900000000000    1.357999999999999   -0.000941037490402   -0.000941037490408   -0.000941037490402
46    2.715899999999999    8.147800000000000    0.000000000000000    0.000941049649884    0.000941049649875   -0.000028271405562
64    4.073900000000000    9.505800000000001    1.357999999999999    0.000028218013570    0.000028218013569   -0.000941016487579
82    5.431900000000000    8.147800000000000    2.715899999999999   -0.000028271405537    0.000941049649872    0.000941049649887
97    6.789900000000000    6.789900000000000    1.357999999999999   -0.000941037490408   -0.000941037490408   -0.000941037490401
118    8.147800000000000    8.147800000000000    0.000000000000000    0.000941049649872    0.000941049649872   -0.000028271405560
136    9.505800000000001    9.505800000000001    1.357999999999999    0.000028218013567    0.000028218013567   -0.000941016487576
154   10.863799999999999    8.147800000000000    2.715899999999999   -0.000028271405530    0.000941049649871    0.000941049649887
169   12.221800000000000    6.789900000000000    1.357999999999999   -0.000941037490447   -0.000941037490405   -0.000941037490404
190   13.579699999999995    8.147800000000000    0.000000000000000    0.000941049649946    0.000941049649872   -0.000028271405560
208   14.937700000000000    9.505800000000001    1.357999999999999    0.000028218013554    0.000028218013567   -0.000941016487577
13    0.000000000000000   10.863799999999999    0.000000000000000   -0.000028209943396   -0.000028209943357   -0.000028209943396
31    1.357999999999999   12.221800000000000    1.357999999999999   -0.000941037490402   -0.000941037490444   -0.000941037490402
49    2.715899999999999   10.863799999999999    2.715899999999999    0.000941049649887   -0.000028271405531    0.000941049649887
85    5.431900000000000   10.863799999999999    0.000000000000000   -0.000028209943368   -0.000028209943363   -0.000028209943385
103    6.789900000000000   12.221800000000000    1.357999999999999   -0.000941037490405   -0.000941037490447   -0.000941037490404
121    8.147800000000000   10.863799999999999    2.715899999999999    0.000941049649871   -0.000028271405530    0.000941049649887
157   10.863799999999999   10.863799999999999    0.000000000000000   -0.000028209943359   -0.000028209943359   -0.000028209943389
175   12.221800000000000   12.221800000000000    1.357999999999999   -0.000941037490447   -0.000941037490447   -0.000941037490404
193   13.579699999999995   10.863799999999999    2.715899999999999    0.000941049649946   -0.000028271405536    0.000941049649887
16    0.000000000000000   13.579699999999995    2.715899999999999   -0.002816723488180   -0.000468436388953    0.002350585890876
52    2.715899999999999   13.579699999999995    0.000000000000000    0.001653081098687    0.000221072098621   -0.001452339092589
70    4.073900000000000   14.937700000000000    1.357999999999999    0.000028218013569    0.000028218013556   -0.000941016487579
88    5.431900000000000   13.579699999999995    2.715899999999999   -0.000028271405542    0.000941049649945    0.000941049649888
124    8.147800000000000   13.579699999999995    0.000000000000000    0.000941049649872    0.000941049649946   -0.000028271405560
142    9.505800000000001   14.937700000000000    1.357999999999999    0.000028218013567    0.000028218013554   -0.000941016487577
160   10.863799999999999   13.579699999999995    2.715899999999999   -0.000028271405536    0.000941049649946    0.000941049649887
196   13.579699999999995   13.579699999999995    0.000000000000000    0.001639428558139    0.001631743432837   -0.001424857654133
214   14.937700000000000   14.937700000000000    1.357999999999999    0.045417955871414    0.028504133724528   -0.029417578972036
2    0.000000000000000    0.000000000000000    5.431900000000000   -0.000028209943389   -0.000028209943393   -0.000028209943370
41    2.715899999999999    2.715899999999999    5.431900000000000    0.000941049649887    0.000941049649887   -0.000028271405543
55    4.073900000000000    1.357999999999999    4.073900000000000    0.000028218013570   -0.000941016487574    0.000028218013570
74    5.431900000000000    0.000000000000000    5.431900000000000   -0.000028209943369   -0.000028209943392   -0.000028209943369
113    8.147800000000000    2.715899999999999    5.431900000000000    0.000941049649872    0.000941049649887   -0.000028271405537
127    9.505800000000001    1.357999999999999    4.073900000000000    0.000028218013569   -0.000941016487579    0.000028218013569
146   10.863799999999999    0.000000000000000    5.431900000000000   -0.000028209943362   -0.000028209943391   -0.000028209943369
185   13.579699999999995    2.715899999999999    5.431900000000000    0.000941049649945    0.000941049649888   -0.000028271405542
199   14.937700000000000    1.357999999999999    4.073900000000000    0.000028218013554   -0.000941016487577    0.000028218013567
8    0.000000000000000    5.431900000000000    5.431900000000000   -0.000028209943389   -0.000028209943366   -0.000028209943372
22    1.357999999999999    4.073900000000000    4.073900000000000   -0.000941016487574    0.000028218013570    0.000028218013570
80    5.431900000000000    5.431900000000000    5.431900000000000   -0.000028209943365   -0.000028209943365   -0.000028209943365
94    6.789900000000000    4.073900000000000    4.073900000000000   -0.000941016487583    0.000028218013567    0.000028218013567
152   10.863799999999999    5.431900000000000    5.431900000000000   -0.000028209943359   -0.000028209943365   -0.000028209943366
166   12.221800000000000    4.073900000000000    4.073900000000000   -0.000941016487619    0.000028218013567    0.000028218013567
28    1.357999999999999    9.505800000000001    4.073900000000000   -0.000941016487579    0.000028218013569    0.000028218013569
47    2.715899999999999    8.147800000000000    5.431900000000000    0.000941049649887    0.000941049649872   -0.000028271405537
61    4.073900000000000    6.789900000000000    4.073900000000000    0.000028218013567   -0.000941016487583    0.000028218013567
100    6.789900000000000    9.505800000000001    4.073900000000000   -0.000941016487583    0.000028218013567    0.000028218013567
119    8.147800000000000    8.147800000000000    5.431900000000000    0.000941049649875    0.000941049649875   -0.000028271405539
133    9.505800000000001    6.789900000000000    4.073900000000000    0.000028218013567   -0.000941016487583    0.000028218013567
172   12.221800000000000    9.505800000000001    4.073900000000000   -0.000941016487620    0.000028218013567    0.000028218013567
191   13.579699999999995    8.147800000000000    5.431900000000000    0.000941049649945    0.000941049649872   -0.000028271405542
205   14.937700000000000    6.789900000000000    4.073900000000000    0.000028218013557   -0.000941016487580    0.000028218013570
14    0.000000000000000   10.863799999999999    5.431900000000000   -0.000028209943389   -0.000028209943360   -0.000028209943372
67    4.073900000000000   12.221800000000000    4.073900000000000    0.000028218013567   -0.000941016487619    0.000028218013567
86    5.431900000000000   10.863799999999999    5.431900000000000   -0.000028209943365   -0.000028209943359   -0.000028209943366
139    9.505800000000001   12.221800000000000    4.073900000000000    0.000028218013567   -0.000941016487620    0.000028218013567
158   10.863799999999999   10.863799999999999    5.431900000000000   -0.000028209943359   -0.000028209943359   -0.000028209943365
211   14.937700000000000   12.221800000000000    4.073900000000000    0.000028218013557   -0.000941016487621    0.000028218013570
34    1.357999999999999   14.937700000000000    4.073900000000000   -0.000941016487576    0.000028218013559    0.000028218013566
53    2.715899999999999   13.579699999999995    5.431900000000000    0.000941049649888    0.000941049649945   -0.000028271405542
106    6.789900000000000   14.937700000000000    4.073900000000000   -0.000941016487578    0.000028218013559    0.000028218013568
125    8.147800000000000   13.579699999999995    5.431900000000000    0.000941049649872    0.000941049649945   -0.000028271405542
178   12.221800000000000   14.937700000000000    4.073900000000000   -0.000941016487619    0.000028218013559    0.000028218013568
197   13.579699999999995   13.579699999999995    5.431900000000000    0.000941049649948    0.000941049649948   -0.000028271405541
5    0.000000000000000    2.715899999999999    8.147800000000000   -0.000028271405568    0.000941049649890    0.000941049649870
20    1.357999999999999    1.357999999999999    6.789900000000000   -0.000941037490402   -0.000941037490402   -0.000941037490408
38    2.715899999999999    0.000000000000000    8.147800000000000    0.000941049649887   -0.000028271405565    0.000941049649872
56    4.073900000000000    1.357999999999999    9.505800000000001    0.000028218013572   -0.000941016487577    0.000028218013567
77    5.431900000000000    2.715899999999999    8.147800000000000   -0.000028271405540    0.000941049649884    0.000941049649875
92    6.789900000000000    1.357999999999999    6.789900000000000   -0.000941037490408   -0.000941037490401   -0.000941037490408
110    8.147800000000000    0.000000000000000    8.147800000000000    0.000941049649869   -0.000028271405563    0.000941049649874
128    9.505800000000001    1.357999999999999    9.505800000000001    0.000028218013567   -0.000941016487576    0.000028218013567
149   10.863799999999999    2.715899999999999    8.147800000000000   -0.000028271405530    0.000941049649887    0.000941049649871
164   12.221800000000000    1.357999999999999    6.789900000000000   -0.000941037490447   -0.000941037490404   -0.000941037490405
182   13.579699999999995    0.000000000000000    8.147800000000000    0.000941049649943   -0.000028271405563    0.000941049649869
200   14.937700000000000    1.357999999999999    9.505800000000001    0.000028218013557   -0.000941016487574    0.000028218013570
23    1.357999999999999    4.073900000000000    9.505800000000001   -0.000941016487577    0.000028218013572    0.000028218013567
44    2.715899999999999    5.431900000000000    8.147800000000000    0.000941049649884   -0.000028271405540    0.000941049649875
59    4.073900000000000    4.073900000000000    6.789900000000000    0.000028218013567    0.000028218013567   -0.000941016487583
95    6.789900000000000    4.073900000000000    9.505800000000001   -0.000941016487580    0.000028218013570    0.000028218013564
116    8.147800000000000    5.431900000000000    8.147800000000000    0.000941049649872   -0.000028271405542    0.000941049649877
131    9.505800000000001    4.073900000000000    6.789900000000000    0.000028218013567    0.000028218013567   -0.000941016487583
167   12.221800000000000    4.073900000000000    9.505800000000001   -0.000941016487620    0.000028218013567    0.000028218013567
188   13.579699999999995    5.431900000000000    8.147800000000000    0.000941049649945   -0.000028271405542    0.000941049649872
203   14.937700000000000    4.073900000000000    6.789900000000000    0.000028218013556    0.000028218013565   -0.000941016487575
11    0.000000000000000    8.147800000000000    8.147800000000000   -0.000028271405563    0.000941049649874    0.000941049649869
26    1.357999999999999    6.789900000000000    6.789900000000000   -0.000941037490401   -0.000941037490408   -0.000941037490408
29    1.357999999999999    9.505800000000001    9.505800000000001   -0.000941016487576    0.000028218013567    0.000028218013567
62    4.073900000000000    6.789900000000000    9.505800000000001    0.000028218013570   -0.000941016487580    0.000028218013564
65    4.073900000000000    9.505800000000001    6.789900000000000    0.000028218013567    0.000028218013567   -0.000941016487583
83    5.431900000000000    8.147800000000000    8.147800000000000   -0.000028271405542    0.000941049649872    0.000941049649877
98    6.789900000000000    6.789900000000000    6.789900000000000   -0.000941037490411   -0.000941037490411   -0.000941037490411
101    6.789900000000000    9.505800000000001    9.505800000000001   -0.000941016487583    0.000028218013567    0.000028218013567
134    9.505800000000001    6.789900000000000    9.505800000000001    0.000028218013567   -0.000941016487583    0.000028218013567
137    9.505800000000001    9.505800000000001    6.789900000000000    0.000028218013567    0.000028218013567   -0.000941016487583
155   10.863799999999999    8.147800000000000    8.147800000000000   -0.000028271405533    0.000941049649875    0.000941049649875
170   12.221800000000000    6.789900000000000    6.789900000000000   -0.000941037490447   -0.000941037490411   -0.000941037490411
173   12.221800000000000    9.505800000000001    9.505800000000001   -0.000941016487625    0.000028218013567    0.000028218013567
206   14.937700000000000    6.789900000000000    9.505800000000001    0.000028218013552   -0.000941016487581    0.000028218013569
209   14.937700000000000    9.505800000000001    6.789900000000000    0.000028218013554    0.000028218013567   -0.000941016487578
32    1.357999999999999   12.221800000000000    6.789900000000000   -0.000941037490404   -0.000941037490447   -0.000941037490405
50    2.715899999999999   10.863799999999999    8.147800000000000    0.000941049649887   -0.000028271405530    0.000941049649871
68    4.073900000000000   12.221800000000000    9.505800000000001    0.000028218013567   -0.000941016487620    0.000028218013567
104    6.789900000000000   12.221800000000000    6.789900000000000   -0.000941037490411   -0.000941037490447   -0.000941037490411
122    8.147800000000000   10.863799999999999    8.147800000000000    0.000941049649875   -0.000028271405533    0.000941049649875
140    9.505800000000001   12.221800000000000    9.505800000000001    0.000028218013567   -0.000941016487625    0.000028218013567
176   12.221800000000000   12.221800000000000    6.789900000000000   -0.000941037490450   -0.000941037490450   -0.000941037490408
194   13.579699999999995   10.863799999999999    8.147800000000000    0.000941049649948   -0.000028271405533    0.000941049649869
212   14.937700000000000   12.221800000000000    9.505800000000001    0.000028218013554   -0.000941016487620    0.000028218013567
17    0.000000000000000   13.579699999999995    8.147800000000000   -0.000028271405565    0.000941049649945    0.000941049649867
35    1.357999999999999   14.937700000000000    9.505800000000001   -0.000941016487574    0.000028218013557    0.000028218013570
71    4.073900000000000   14.937700000000000    6.789900000000000    0.000028218013570    0.000028218013557   -0.000941016487580
89    5.431900000000000   13.579699999999995    8.147800000000000   -0.000028271405542    0.000941049649945    0.000941049649872
107    6.789900000000000   14.937700000000000    9.505800000000001   -0.000941016487580    0.000028218013556    0.000028218013569
143    9.505800000000001   14.937700000000000    6.789900000000000    0.000028218013571    0.000028218013554   -0.000941016487583
161   10.863799999999999   13.579699999999995    8.147800000000000   -0.000028271405533    0.000941049649948    0.000941049649869
179   12.221800000000000   14.937700000000000    9.505800000000001   -0.000941016487622    0.000028218013556    0.000028218013569
215   14.937700000000000   14.937700000000000    6.789900000000000    0.000028218013556    0.000028218013552   -0.000941016487580
3    0.000000000000000    0.000000000000000   10.863799999999999   -0.000028209943391   -0.000028209943391   -0.000028209943362
21    1.357999999999999    1.357999999999999   12.221800000000000   -0.000941037490402   -0.000941037490402   -0.000941037490444
42    2.715899999999999    2.715899999999999   10.863799999999999    0.000941049649887    0.000941049649887   -0.000028271405531
75    5.431900000000000    0.000000000000000   10.863799999999999   -0.000028209943369   -0.000028209943391   -0.000028209943362
93    6.789900000000000    1.357999999999999   12.221800000000000   -0.000941037490405   -0.000941037490404   -0.000941037490447
114    8.147800000000000    2.715899999999999   10.863799999999999    0.000941049649871    0.000941049649887   -0.000028271405530
147   10.863799999999999    0.000000000000000   10.863799999999999   -0.000028209943359   -0.000028209943394   -0.000028209943359
165   12.221800000000000    1.357999999999999   12.221800000000000   -0.000941037490447   -0.000941037490404   -0.000941037490447
186   13.579699999999995    2.715899999999999   10.863799999999999    0.000941049649946    0.000941049649887   -0.000028271405536
9    0.000000000000000    5.431900000000000   10.863799999999999   -0.000028209943385   -0.000028209943368   -0.000028209943363
60    4.073900000000000    4.073900000000000   12.221800000000000    0.000028218013567    0.000028218013567   -0.000941016487619
81    5.431900000000000    5.431900000000000   10.863799999999999   -0.000028209943366   -0.000028209943366   -0.000028209943359
132    9.505800000000001    4.073900000000000   12.221800000000000    0.000028218013567    0.000028218013567   -0.000941016487620
153   10.863799999999999    5.431900000000000   10.863799999999999   -0.000028209943359   -0.000028209943365   -0.000028209943359
204   14.937700000000000    4.073900000000000   12.221800000000000    0.000028218013556    0.000028218013564   -0.000941016487616
27    1.357999999999999    6.789900000000000   12.221800000000000   -0.000941037490404   -0.000941037490405   -0.000941037490447
48    2.715899999999999    8.147800000000000   10.863799999999999    0.000941049649887    0.000941049649871   -0.000028271405530
66    4.073900000000000    9.505800000000001   12.221800000000000    0.000028218013567    0.000028218013567   -0.000941016487620
99    6.789900000000000    6.789900000000000   12.221800000000000   -0.000941037490411   -0.000941037490411   -0.000941037490447
120    8.147800000000000    8.147800000000000   10.863799999999999    0.000941049649875    0.000941049649875   -0.000028271405533
138    9.505800000000001    9.505800000000001   12.221800000000000    0.000028218013567    0.000028218013567   -0.000941016487625
171   12.221800000000000    6.789900000000000   12.221800000000000   -0.000941037490450   -0.000941037490408   -0.000941037490450
192   13.579699999999995    8.147800000000000   10.863799999999999    0.000941049649948    0.000941049649869   -0.000028271405533
210   14.937700000000000    9.505800000000001   12.221800000000000    0.000028218013554    0.000028218013567   -0.000941016487620
15    0.000000000000000   10.863799999999999   10.863799999999999   -0.000028209943389   -0.000028209943359   -0.000028209943359
33    1.357999999999999   12.221800000000000   12.221800000000000   -0.000941037490404   -0.000941037490447   -0.000941037490447
87    5.431900000000000   10.863799999999999   10.863799999999999   -0.000028209943365   -0.000028209943359   -0.000028209943359
105    6.789900000000000   12.221800000000000   12.221800000000000   -0.000941037490408   -0.000941037490450   -0.000941037490450
159   10.863799999999999   10.863799999999999   10.863799999999999   -0.000028209943359   -0.000028209943359   -0.000028209943359
177   12.221800000000000   12.221800000000000   12.221800000000000   -0.000941037490450   -0.000941037490450   -0.000941037490450
54    2.715899999999999   13.579699999999995   10.863799999999999    0.000941049649887    0.000941049649946   -0.000028271405536
72    4.073900000000000   14.937700000000000   12.221800000000000    0.000028218013570    0.000028218013557   -0.000941016487621
126    8.147800000000000   13.579699999999995   10.863799999999999    0.000941049649869    0.000941049649948   -0.000028271405533
144    9.505800000000001   14.937700000000000   12.221800000000000    0.000028218013569    0.000028218013556   -0.000941016487622
198   13.579699999999995   13.579699999999995   10.863799999999999    0.000941049649948    0.000941049649948   -0.000028271405533
216   14.937700000000000   14.937700000000000   12.221800000000000    0.000028218013554    0.000028218013554   -0.000941016487619
6    0.000000000000000    2.715899999999999   13.579699999999995   -0.002816723488179    0.002350585890881   -0.000468436388958
39    2.715899999999999    0.000000000000000   13.579699999999995    0.001653081098684   -0.001452339092592    0.000221072098624
57    4.073900000000000    1.357999999999999   14.937700000000000    0.000028218013570   -0.000941016487580    0.000028218013552
78    5.431900000000000    2.715899999999999   13.579699999999995   -0.000028271405542    0.000941049649888    0.000941049649945
111    8.147800000000000    0.000000000000000   13.579699999999995    0.000941049649870   -0.000028271405562    0.000941049649949
129    9.505800000000001    1.357999999999999   14.937700000000000    0.000028218013567   -0.000941016487577    0.000028218013554
150   10.863799999999999    2.715899999999999   13.579699999999995   -0.000028271405536    0.000941049649887    0.000941049649946
183   13.579699999999995    0.000000000000000   13.579699999999995    0.001639428558139   -0.001424857654133    0.001631743432837
201   14.937700000000000    1.357999999999999   14.937700000000000    0.045417955871408   -0.029417578972035    0.028504133724528
24    1.357999999999999    4.073900000000000   14.937700000000000   -0.000941016487580    0.000028218013570    0.000028218013552
45    2.715899999999999    5.431900000000000   13.579699999999995    0.000941049649888   -0.000028271405542    0.000941049649945
96    6.789900000000000    4.073900000000000   14.937700000000000   -0.000941016487580    0.000028218013570    0.000028218013551
117    8.147800000000000    5.431900000000000   13.579699999999995    0.000941049649872   -0.000028271405542    0.000941049649945
168   12.221800000000000    4.073900000000000   14.937700000000000   -0.000941016487618    0.000028218013566    0.000028218013554
189   13.579699999999995    5.431900000000000   13.579699999999995    0.000941049649948   -0.000028271405541    0.000941049649948
12    0.000000000000000    8.147800000000000   13.579699999999995   -0.000028271405560    0.000941049649872    0.000941049649946
30    1.357999999999999    9.505800000000001   14.937700000000000   -0.000941016487577    0.000028218013567    0.000028218013554
63    4.073900000000000    6.789900000000000   14.937700000000000    0.000028218013570   -0.000941016487580    0.000028218013551
84    5.431900000000000    8.147800000000000   13.579699999999995   -0.000028271405542    0.000941049649872    0.000941049649945
102    6.789900000000000    9.505800000000001   14.937700000000000   -0.000941016487581    0.000028218013569    0.000028218013551
135    9.505800000000001    6.789900000000000   14.937700000000000    0.000028218013569   -0.000941016487581    0.000028218013551
156   10.863799999999999    8.147800000000000   13.579699999999995   -0.000028271405533    0.000941049649869    0.000941049649948
174   12.221800000000000    9.505800000000001   14.937700000000000   -0.000941016487620    0.000028218013567    0.000028218013554
207   14.937700000000000    6.789900000000000   14.937700000000000    0.000028218013559   -0.000941016487587    0.000028218013559
51    2.715899999999999   10.863799999999999   13.579699999999995    0.000941049649887   -0.000028271405536    0.000941049649946
69    4.073900000000000   12.221800000000000   14.937700000000000    0.000028218013566   -0.000941016487618    0.000028218013554
123    8.147800000000000   10.863799999999999   13.579699999999995    0.000941049649869   -0.000028271405533    0.000941049649948
141    9.505800000000001   12.221800000000000   14.937700000000000    0.000028218013567   -0.000941016487620    0.000028218013554
195   13.579699999999995   10.863799999999999   13.579699999999995    0.000941049649948   -0.000028271405533    0.000941049649948
213   14.937700000000000   12.221800000000000   14.937700000000000    0.000028218013556   -0.000941016487626    0.000028218013562
18    0.000000000000000   13.579699999999995   13.579699999999995   -0.002881093353690    0.002352046091707    0.002352046091701
36    1.357999999999999   14.937700000000000   14.937700000000000    0.044941328820170   -0.028883923897432   -0.028883923897438
90    5.431900000000000   13.579699999999995   13.579699999999995   -0.000028271405541    0.000941049649948    0.000941049649948
108    6.789900000000000   14.937700000000000   14.937700000000000   -0.000941016487580    0.000028218013556    0.000028218013552
162   10.863799999999999   13.579699999999995   13.579699999999995   -0.000028271405533    0.000941049649948    0.000941049649948
180   12.221800000000000   14.937700000000000   14.937700000000000   -0.000941016487619    0.000028218013554    0.000028218013554
