LAMMPS Description # full

3 atoms
2 bonds
1 angles
0 dihedrals
0 impropers

2 atom types
1 bond types
1 angle types
0 dihedral types
0 improper types

0 45.2348 xlo xhi
0 46.3800 ylo yhi
0 44.0000 zlo zhi

Masses

1 15.0350 # C CH3 n-Butane 83 #
2 14.0270 # C CH2 n-Butane 86 #

Pair Coeffs

1 0.1750 3.9050
2 0.1180 3.9050

Bond Coeffs

1 260.0000 1.5260

Angle Coeffs

1 63.0000 112.4000

Atoms

1 1 1 0.0000 -0.0022 0.5914 0.0000
2 1 2 0.0000 1.2326 -0.3053 0.0000
3 1 1 0.0000 0.8741 -1.7886 0.0000

Bonds

1 1 1 2
2 1 2 3

Angles

1 1 1 2 3

