LAMMPS (19 Nov 2024)
  using 2 OpenMP thread(s) per MPI task
units metal
atom_style atomic
boundary p p p
read_data /Users/zhteg4/git/nemd/test/data/si/crystal_builder.data
Reading data file ...
  triclinic box = (0 0 0) to (5.4307 5.4307 5.4307) with tilt (0 0 0)
  1 by 1 by 1 MPI processor grid
  reading atoms ...
  8 atoms
  read_data CPU = 0.002 seconds

pair_style sw
pair_coeff * * /Users/zhteg4/git/nemd/test/data/si/Si.sw Si
Reading sw potential file /Users/zhteg4/git/nemd/test/data/si/Si.sw with DATE: 2007-06-11
dump 1 all custom 1 crystal_builder.dump id xu yu zu
dump_modify 1 format float '%20.15f'
run 0
WARNING: No fixes with time integration, atoms won't move (src/verlet.cpp:60)
Neighbor list info ...
  update: every = 1 steps, delay = 0 steps, check = yes
  max neighbors/atom: 2000, page size: 100000
  master list distance cutoff = 5.77118
  ghost atom cutoff = 5.77118
  binsize = 2.88559, bins = 2 2 2
  1 neighbor lists, perpetual/occasional/extra = 1 0 0
  (1) pair sw, perpetual
      attributes: full, newton on
      pair build: full/bin/atomonly
      stencil: full/bin/3d
      bin: standard
Per MPI rank memory allocation (min/avg/max) = 3.84 | 3.84 | 3.84 Mbytes
   Step          Temp          E_pair         E_mol          TotEng         Press     
         0   0             -34.69278       0             -34.69278       140.148      
Loop time of 1.072e-06 on 2 procs for 0 steps with 8 atoms

186.6% CPU use with 1 MPI tasks x 2 OpenMP threads

MPI task timing breakdown:
Section |  min time  |  avg time  |  max time  |%varavg| %total
---------------------------------------------------------------
Pair    | 0          | 0          | 0          |   0.0 |  0.00
Neigh   | 0          | 0          | 0          |   0.0 |  0.00
Comm    | 0          | 0          | 0          |   0.0 |  0.00
Output  | 0          | 0          | 0          |   0.0 |  0.00
Modify  | 0          | 0          | 0          |   0.0 |  0.00
Other   |            | 1.072e-06  |            |       |100.00

Nlocal:              8 ave           8 max           8 min
Histogram: 1 0 0 0 0 0 0 0 0 0
Nghost:            272 ave         272 max         272 min
Histogram: 1 0 0 0 0 0 0 0 0 0
Neighs:              0 ave           0 max           0 min
Histogram: 1 0 0 0 0 0 0 0 0 0
FullNghs:          272 ave         272 max         272 min
Histogram: 1 0 0 0 0 0 0 0 0 0

Total # of neighbors = 272
Ave neighs/atom = 34
Neighbor list builds = 0
Dangerous builds = 0
Total wall time: 0:00:00
