LAMMPS Description # full

4 atoms
3 bonds
2 angles
0 dihedrals
1 impropers

2 atom types
1 bond types
1 angle types
0 dihedral types
1 improper types

0 5.7793 xlo xhi
0 5.7793 ylo yhi
0 5.7793 zlo zhi

Masses

1 15.0350 # C CH3 Isobutane 84 #
2 13.0190 # C CH Isobutane 88 #

Pair Coeffs

1 0.1600 3.9100
2 0.0800 3.8500

Bond Coeffs

1 260.0000 1.5260

Angle Coeffs

1 63.0000 112.4000

Improper Coeffs

1 14.0000 -1 3

Atoms

1 1 2 0.0000 1.0125 3.4225 2.2081
2 1 1 0.0000 -0.2092 3.7376 3.0665
3 1 1 0.0000 1.6892 4.7502 1.8797
4 1 1 0.0000 1.9350 2.4712 2.9649

Bonds

1 1 1 2
2 1 1 3
3 1 1 4

Angles

1 1 2 1 4
2 1 3 1 4

Impropers

1 1 2 3 1 4

