LAMMPS Description # full

100 atoms
0 bonds
0 angles
0 dihedrals
0 impropers

1 atom types
0 bond types
0 angle types
0 dihedral types
0 improper types

0 159.3309 xlo xhi
0 159.3309 ylo yhi
0 159.3309 zlo zhi

Masses

1 39.9480 # Argon Atom Ar 211 #

Pair Coeffs

1 0.2340 3.4010

Atoms

1 1 1 0.0000 126.8637 92.2788 83.1126
2 2 1 0.0000 114.3115 81.2068 61.5203
3 3 1 0.0000 152.6259 127.3107 45.4561
4 4 1 0.0000 121.0375 114.6130 42.4326
5 5 1 0.0000 74.6067 121.1583 -20.2642
6 6 1 0.0000 92.6499 106.4123 -5.1542
7 7 1 0.0000 94.4537 133.2153 -3.5024
8 8 1 0.0000 77.1911 118.2341 -10.6316
9 9 1 0.0000 69.1643 139.4605 -3.9667
10 10 1 0.0000 127.7186 20.6385 12.2589
11 11 1 0.0000 110.1787 11.4678 17.8313
12 12 1 0.0000 68.2602 31.6594 132.1945
13 13 1 0.0000 60.4484 59.8388 119.6959
14 14 1 0.0000 2.4818 90.8884 68.0182
15 15 1 0.0000 82.8462 42.2682 22.3071
16 16 1 0.0000 134.5075 52.5621 107.1696
17 17 1 0.0000 17.9174 98.2669 12.5298
18 18 1 0.0000 -1.5373 77.2205 17.7256
19 19 1 0.0000 35.1965 74.6842 8.0636
20 20 1 0.0000 133.4626 104.0953 81.9342
21 21 1 0.0000 154.6985 116.9895 70.8988
22 22 1 0.0000 124.9220 121.3717 93.6061
23 23 1 0.0000 144.2509 113.8283 72.6029
24 24 1 0.0000 130.9040 117.5474 61.7329
25 25 1 0.0000 131.6132 118.0924 84.0709
26 26 1 0.0000 112.2086 144.8613 76.0232
27 27 1 0.0000 144.9950 121.3398 69.2310
28 28 1 0.0000 76.4263 68.8957 61.8973
29 29 1 0.0000 123.5490 26.2383 29.5680
30 30 1 0.0000 93.4399 29.7646 65.7804
31 31 1 0.0000 20.2476 23.4050 12.8299
32 32 1 0.0000 41.6413 -6.5999 16.7534
33 33 1 0.0000 8.7060 26.6774 34.6863
34 34 1 0.0000 43.9753 10.3974 9.3357
35 35 1 0.0000 18.9743 16.2932 9.0946
36 36 1 0.0000 12.2057 4.3604 19.7814
37 37 1 0.0000 26.3856 13.7019 42.2502
38 38 1 0.0000 27.1967 -9.3069 22.7860
39 39 1 0.0000 61.2940 87.1953 118.3797
40 40 1 0.0000 39.8908 88.7589 130.1151
41 41 1 0.0000 42.4960 107.3655 156.6333
42 42 1 0.0000 43.2492 106.5213 134.8483
43 43 1 0.0000 5.4346 51.9788 96.2798
44 44 1 0.0000 76.3186 -24.6906 108.1437
45 45 1 0.0000 98.4637 0.2864 89.8282
46 46 1 0.0000 72.7295 -4.2453 89.4792
47 47 1 0.0000 -18.7208 144.0932 95.5252
48 48 1 0.0000 22.4668 136.6947 89.6473
49 49 1 0.0000 24.1146 122.5462 58.4174
50 50 1 0.0000 -1.0264 135.7106 67.7887
51 51 1 0.0000 118.4181 82.3745 122.1313
52 52 1 0.0000 143.2563 101.2288 119.2789
53 53 1 0.0000 125.9253 79.2896 139.0858
54 54 1 0.0000 54.8105 140.4048 20.1390
55 55 1 0.0000 17.8990 127.9324 -16.4759
56 56 1 0.0000 43.4559 123.0076 25.3417
57 57 1 0.0000 13.7891 136.9408 13.9953
58 58 1 0.0000 48.6555 137.0905 -15.9999
59 59 1 0.0000 45.0426 120.6777 -6.2088
60 60 1 0.0000 35.6624 149.5360 0.9405
61 61 1 0.0000 24.8906 124.2399 -4.3102
62 62 1 0.0000 91.5358 140.0641 70.3069
63 63 1 0.0000 74.8375 132.3337 49.4735
64 64 1 0.0000 100.7736 30.1308 -19.3411
65 65 1 0.0000 98.9329 48.1152 16.7869
66 66 1 0.0000 112.3940 44.8592 -6.8263
67 67 1 0.0000 -9.8813 73.5119 133.7796
68 68 1 0.0000 112.5938 92.2907 104.9308
69 69 1 0.0000 125.5677 87.1831 74.4362
70 70 1 0.0000 82.2013 117.4835 93.3736
71 71 1 0.0000 89.5743 111.2189 79.4383
72 72 1 0.0000 98.9169 110.1922 68.1525
73 73 1 0.0000 136.6331 123.3257 114.8146
74 74 1 0.0000 125.4117 121.6339 160.4012
75 75 1 0.0000 120.4594 121.3153 132.2475
76 76 1 0.0000 43.2634 69.1615 58.5652
77 77 1 0.0000 28.0875 78.5179 49.7226
78 78 1 0.0000 96.5530 81.3293 125.3924
79 79 1 0.0000 80.2294 64.0504 66.1094
80 80 1 0.0000 92.7046 72.7329 96.9051
81 81 1 0.0000 99.5008 19.3518 116.3749
82 82 1 0.0000 115.9078 108.0700 34.3614
83 83 1 0.0000 129.7980 87.4109 20.3094
84 84 1 0.0000 106.7555 86.4357 37.9836
85 85 1 0.0000 1.0770 18.9085 6.3730
86 86 1 0.0000 -1.8583 -18.5654 12.0102
87 87 1 0.0000 -12.1537 23.1445 8.0492
88 88 1 0.0000 11.4006 -18.7121 -13.4076
89 89 1 0.0000 -10.2602 -22.6828 -3.2529
90 90 1 0.0000 9.5893 -3.8563 7.3902
91 91 1 0.0000 -0.7335 94.9394 123.3935
92 92 1 0.0000 13.9217 134.6705 122.5421
93 93 1 0.0000 -17.2583 112.5783 129.4578
94 94 1 0.0000 -8.1916 132.3517 123.9764
95 95 1 0.0000 37.8099 16.3670 68.9709
96 96 1 0.0000 51.3038 18.2590 78.4941
97 97 1 0.0000 38.5184 -3.4493 76.1770
98 98 1 0.0000 51.7933 -0.5194 90.1372
99 99 1 0.0000 45.6614 65.2521 -1.7170
100 100 1 0.0000 92.3444 139.0786 112.6446

