..........Options..........
inscript: /Users/zhteg4/test/workspace/b468588a7aa25c46d4bdb8aee130938a/workspace/cef003f36a986b0500678c1c2580e936/amorp_bldr.in
data_file: amorp_bldr.data
NAME: lammps
JOBNAME: lammps
INTERAC: False
PYTHON: 2
CPU: 1
DEBUG: False
JobStart: 14:00:01 04/11/2025
...........................
Running lammps simulations...
LAMMPS (19 Nov 2024)
  using 1 OpenMP thread(s) per MPI task
Reading data file ...
  orthogonal box = (0 0 0) to (159.3309 159.3309 159.3309)
  1 by 1 by 1 MPI processor grid
  reading atoms ...
  100 atoms
Finding 1-2 1-3 1-4 neighbors ...
  special bond factors lj:    0        0        0.5     
  special bond factors coul:  0        0        0.5     
     0 = max # of 1-2 neighbors
     0 = max # of 1-3 neighbors
     0 = max # of 1-4 neighbors
     1 = max # of special neighbors
  special bonds CPU = 0.000 seconds
  read_data CPU = 0.002 seconds
Generated 0 of 0 mixed pair_coeff terms from geometric mixing rule
Neighbor list info ...
  update: every = 1 steps, delay = 0 steps, check = yes
  max neighbors/atom: 2000, page size: 100000
  master list distance cutoff = 13
  ghost atom cutoff = 13
  binsize = 6.5, bins = 25 25 25
  1 neighbor lists, perpetual/occasional/extra = 1 0 0
  (1) pair lj/cut, perpetual
      attributes: half, newton on
      pair build: half/bin/newton
      stencil: half/bin/3d
      bin: standard
Setting up fire style minimization ...
  Unit style    : real
  Current step  : 0
  Parameters for fire:
    dmax  delaystep dtgrow dtshrink alpha0 alphashrink tmax tmin   integrator   halfstepback   abcfire  
     0.1     20      1.1     0.5     0.25     0.99      10  0.02 eulerimplicit      yes          no     
Per MPI rank memory allocation (min/avg/max) = 6.103 | 6.103 | 6.103 Mbytes
   Step          Temp          E_pair         E_mol          TotEng         Press     
         0   0             -0.021211725    0             -0.021211725   -0.00071482197
      1240   0.00014608555 -0.70784213     0             -0.70779902    -0.00019552375
Loop time of 0.00408855 on 1 procs for 1240 steps with 100 atoms

98.4% CPU use with 1 MPI tasks x 1 OpenMP threads

Minimization stats:
  Stopping criterion = energy tolerance
  Energy initial, next-to-last, final = 
    -0.0212117252332137 -0.707841434946613 -0.707842130886479
  Force two-norm initial, final = 0.011812984 0.002745534
  Force max component initial, final = 0.0043019251 0.0016922472
  Final line search alpha, max atom move = 0 0
  Iterations, force evaluations = 1240 1244

MPI task timing breakdown:
Section |  min time  |  avg time  |  max time  |%varavg| %total
---------------------------------------------------------------
Pair    | 0.00051153 | 0.00051153 | 0.00051153 |   0.0 | 12.51
Bond    | 0.00012201 | 0.00012201 | 0.00012201 |   0.0 |  2.98
Neigh   | 6.1365e-05 | 6.1365e-05 | 6.1365e-05 |   0.0 |  1.50
Comm    | 0.00048451 | 0.00048451 | 0.00048451 |   0.0 | 11.85
Output  | 9.5491e-05 | 9.5491e-05 | 9.5491e-05 |   0.0 |  2.34
Modify  | 0          | 0          | 0          |   0.0 |  0.00
Other   |            | 0.002814   |            |       | 68.82

Nlocal:            100 ave         100 max         100 min
Histogram: 1 0 0 0 0 0 0 0 0 0
Nghost:             61 ave          61 max          61 min
Histogram: 1 0 0 0 0 0 0 0 0 0
Neighs:              9 ave           9 max           9 min
Histogram: 1 0 0 0 0 0 0 0 0 0

Total # of neighbors = 9
Ave neighs/atom = 0.09
Ave special neighs/atom = 0
Neighbor list builds = 3
Dangerous builds = 0
Generated 0 of 0 mixed pair_coeff terms from geometric mixing rule
Setting up Verlet run ...
  Unit style    : real
  Current step  : 1240
  Time step     : 1
Per MPI rank memory allocation (min/avg/max) = 7.36 | 7.36 | 7.36 Mbytes
   Step          Temp          E_pair         E_mol          TotEng         Press     
      1240   10            -0.70784213     0              2.2431598      0.033154487  
      1340   9.9795373     -0.69951739     0              2.245446       0.03703997   
Loop time of 0.000391653 on 1 procs for 100 steps with 100 atoms

Performance: 22060.344 ns/day, 0.001 hours/ns, 255328.058 timesteps/s, 25.533 Matom-step/s
91.4% CPU use with 1 MPI tasks x 1 OpenMP threads

MPI task timing breakdown:
Section |  min time  |  avg time  |  max time  |%varavg| %total
---------------------------------------------------------------
Pair    | 4.5034e-05 | 4.5034e-05 | 4.5034e-05 |   0.0 | 11.50
Bond    | 1.0164e-05 | 1.0164e-05 | 1.0164e-05 |   0.0 |  2.60
Neigh   | 0          | 0          | 0          |   0.0 |  0.00
Comm    | 5.0266e-05 | 5.0266e-05 | 5.0266e-05 |   0.0 | 12.83
Output  | 3.2146e-05 | 3.2146e-05 | 3.2146e-05 |   0.0 |  8.21
Modify  | 0.00018802 | 0.00018802 | 0.00018802 |   0.0 | 48.01
Other   |            | 6.602e-05  |            |       | 16.86

Nlocal:            100 ave         100 max         100 min
Histogram: 1 0 0 0 0 0 0 0 0 0
Nghost:             61 ave          61 max          61 min
Histogram: 1 0 0 0 0 0 0 0 0 0
Neighs:              9 ave           9 max           9 min
Histogram: 1 0 0 0 0 0 0 0 0 0

Total # of neighbors = 9
Ave neighs/atom = 0.09
Ave special neighs/atom = 0
Neighbor list builds = 0
Dangerous builds = 0
Generated 0 of 0 mixed pair_coeff terms from geometric mixing rule
Setting up Verlet run ...
  Unit style    : real
  Current step  : 1340
  Time step     : 1
Per MPI rank memory allocation (min/avg/max) = 7.36 | 7.36 | 7.36 Mbytes
   Step          Temp          E_pair         E_mol          TotEng         Press     
      1340   9.9795373     -0.69951739     0              2.245446       0.03703997   
      2000   42.475019     -0.65683457     0              11.877552      0.13523646   
      3000   100.56017     -0.6601313      0              29.015196      0.33484574   
      4000   158.47256     -0.58700122     0              46.178282      0.51797479   
      5000   216.43679     -0.70817407     0              63.162365      0.71675536   
      6000   274.46042     -0.40053987     0              80.592783      0.91148846   
      6340   294.24459     -0.36959415     0              86.462042      0.97919435   
Loop time of 0.0137657 on 1 procs for 5000 steps with 100 atoms

Performance: 31382.317 ns/day, 0.001 hours/ns, 363221.261 timesteps/s, 36.322 Matom-step/s
99.1% CPU use with 1 MPI tasks x 1 OpenMP threads

MPI task timing breakdown:
Section |  min time  |  avg time  |  max time  |%varavg| %total
---------------------------------------------------------------
Pair    | 0.0017818  | 0.0017818  | 0.0017818  |   0.0 | 12.94
Bond    | 0.00034495 | 0.00034495 | 0.00034495 |   0.0 |  2.51
Neigh   | 0.00044866 | 0.00044866 | 0.00044866 |   0.0 |  3.26
Comm    | 0.0020141  | 0.0020141  | 0.0020141  |   0.0 | 14.63
Output  | 0.00057589 | 0.00057589 | 0.00057589 |   0.0 |  4.18
Modify  | 0.0062076  | 0.0062076  | 0.0062076  |   0.0 | 45.09
Other   |            | 0.002393   |            |       | 17.38

Nlocal:            100 ave         100 max         100 min
Histogram: 1 0 0 0 0 0 0 0 0 0
Nghost:             52 ave          52 max          52 min
Histogram: 1 0 0 0 0 0 0 0 0 0
Neighs:             12 ave          12 max          12 min
Histogram: 1 0 0 0 0 0 0 0 0 0

Total # of neighbors = 12
Ave neighs/atom = 0.12
Ave special neighs/atom = 0
Neighbor list builds = 22
Dangerous builds = 0
Generated 0 of 0 mixed pair_coeff terms from geometric mixing rule
Setting up Verlet run ...
  Unit style    : real
  Current step  : 6340
  Time step     : 1
Per MPI rank memory allocation (min/avg/max) = 7.36 | 7.36 | 7.36 Mbytes
   Step          Temp          E_pair         E_mol          TotEng         Press     
      6340   294.24459     -0.36959415     0              86.462042      0.97919435   
      7000   300.07885     -0.47598844     0              88.077339      0.99213572   
      8000   299.93701     -0.36116033     0              88.150308      0.99419614   
      9000   299.98334     -0.28781283     0              88.237331      1.0011207    
     10000   300.01744     -0.27533812     0              88.259866      0.99914639   
     11000   300.04128     -0.42540108     0              88.116839      0.99335406   
     11340   299.97699     -0.41799741     0              88.10527       0.99526663   
Loop time of 0.0139254 on 1 procs for 5000 steps with 100 atoms

Performance: 31022.442 ns/day, 0.001 hours/ns, 359056.036 timesteps/s, 35.906 Matom-step/s
99.3% CPU use with 1 MPI tasks x 1 OpenMP threads

MPI task timing breakdown:
Section |  min time  |  avg time  |  max time  |%varavg| %total
---------------------------------------------------------------
Pair    | 0.0020372  | 0.0020372  | 0.0020372  |   0.0 | 14.63
Bond    | 0.00033301 | 0.00033301 | 0.00033301 |   0.0 |  2.39
Neigh   | 0.00061226 | 0.00061226 | 0.00061226 |   0.0 |  4.40
Comm    | 0.0019015  | 0.0019015  | 0.0019015  |   0.0 | 13.65
Output  | 0.00046822 | 0.00046822 | 0.00046822 |   0.0 |  3.36
Modify  | 0.0062198  | 0.0062198  | 0.0062198  |   0.0 | 44.67
Other   |            | 0.002353   |            |       | 16.90

Nlocal:            100 ave         100 max         100 min
Histogram: 1 0 0 0 0 0 0 0 0 0
Nghost:             57 ave          57 max          57 min
Histogram: 1 0 0 0 0 0 0 0 0 0
Neighs:             14 ave          14 max          14 min
Histogram: 1 0 0 0 0 0 0 0 0 0

Total # of neighbors = 14
Ave neighs/atom = 0.14
Ave special neighs/atom = 0
Neighbor list builds = 33
Dangerous builds = 0
defm_id = 000
Generated 0 of 0 mixed pair_coeff terms from geometric mixing rule
Setting up Verlet run ...
  Unit style    : real
  Current step  : 11340
  Time step     : 1
Per MPI rank memory allocation (min/avg/max) = 7.36 | 7.36 | 7.36 Mbytes
   Step          Temp          E_pair         E_mol          TotEng         Press          Volume    
     11340   299.97699     -0.41799741     0              88.10527       0.99526663     4044827.7    
     12000   299.98239     -0.32628065     0              88.198581      1.0231147      3943235.5    
     13000   299.8931      -0.37983344     0              88.118678      1.0254194      3943235.5    
     14000   300.31942     -0.55483538     0              88.069484      1.0507445      3943235.5    
     14340   299.84573     -0.50815691     0              87.976377      1.0006152      4014725.5    
Loop time of 0.0151523 on 1 procs for 3000 steps with 100 atoms

Performance: 17106.260 ns/day, 0.001 hours/ns, 197989.117 timesteps/s, 19.799 Matom-step/s
89.3% CPU use with 1 MPI tasks x 1 OpenMP threads

MPI task timing breakdown:
Section |  min time  |  avg time  |  max time  |%varavg| %total
---------------------------------------------------------------
Pair    | 0.0025974  | 0.0025974  | 0.0025974  |   0.0 | 17.14
Bond    | 0.00033557 | 0.00033557 | 0.00033557 |   0.0 |  2.21
Neigh   | 0.00058522 | 0.00058522 | 0.00058522 |   0.0 |  3.86
Comm    | 0.0014495  | 0.0014495  | 0.0014495  |   0.0 |  9.57
Output  | 0.00023668 | 0.00023668 | 0.00023668 |   0.0 |  1.56
Modify  | 0.0084237  | 0.0084237  | 0.0084237  |   0.0 | 55.59
Other   |            | 0.001524   |            |       | 10.06

Nlocal:            100 ave         100 max         100 min
Histogram: 1 0 0 0 0 0 0 0 0 0
Nghost:             55 ave          55 max          55 min
Histogram: 1 0 0 0 0 0 0 0 0 0
Neighs:             15 ave          15 max          15 min
Histogram: 1 0 0 0 0 0 0 0 0 0

Total # of neighbors = 15
Ave neighs/atom = 0.15
Ave special neighs/atom = 0
Neighbor list builds = 30
Dangerous builds = 0
immed_press = 1.0011256
immed_modulus = 10
factor = 1.0123343341809
Generated 0 of 0 mixed pair_coeff terms from geometric mixing rule
Setting up Verlet run ...
  Unit style    : real
  Current step  : 14340
  Time step     : 1
Per MPI rank memory allocation (min/avg/max) = 7.36 | 7.36 | 7.36 Mbytes
   Step          Temp          E_pair         E_mol          TotEng         Press          Volume    
     14340   299.84573     -0.50815691     0              87.976377      1.0006152      4014725.5    
     14840   299.93758     -0.35344239     0              88.158197      0.9661059      4152954.6    
Loop time of 0.00128999 on 1 procs for 500 steps with 100 atoms

Performance: 33488.554 ns/day, 0.001 hours/ns, 387599.002 timesteps/s, 38.760 Matom-step/s
99.5% CPU use with 1 MPI tasks x 1 OpenMP threads

MPI task timing breakdown:
Section |  min time  |  avg time  |  max time  |%varavg| %total
---------------------------------------------------------------
Pair    | 0.00016431 | 0.00016431 | 0.00016431 |   0.0 | 12.74
Bond    | 3.2198e-05 | 3.2198e-05 | 3.2198e-05 |   0.0 |  2.50
Neigh   | 7.6833e-05 | 7.6833e-05 | 7.6833e-05 |   0.0 |  5.96
Comm    | 0.00017682 | 0.00017682 | 0.00017682 |   0.0 | 13.71
Output  | 1.2425e-05 | 1.2425e-05 | 1.2425e-05 |   0.0 |  0.96
Modify  | 0.00059735 | 0.00059735 | 0.00059735 |   0.0 | 46.31
Other   |            | 0.0002301  |            |       | 17.83

Nlocal:            100 ave         100 max         100 min
Histogram: 1 0 0 0 0 0 0 0 0 0
Nghost:             52 ave          52 max          52 min
Histogram: 1 0 0 0 0 0 0 0 0 0
Neighs:             11 ave          11 max          11 min
Histogram: 1 0 0 0 0 0 0 0 0 0

Total # of neighbors = 11
Ave neighs/atom = 0.11
Ave special neighs/atom = 0
Neighbor list builds = 4
Dangerous builds = 0
Generated 0 of 0 mixed pair_coeff terms from geometric mixing rule
Setting up Verlet run ...
  Unit style    : real
  Current step  : 14840
  Time step     : 1
Per MPI rank memory allocation (min/avg/max) = 7.36 | 7.36 | 7.36 Mbytes
   Step          Temp          E_pair         E_mol          TotEng         Press     
     14840   299.93758     -0.35344239     0              88.158197      0.9661059    
     15000   299.96516     -0.33822186     0              88.181557      0.96674899   
     15340   299.97727     -0.31799215     0              88.205358      0.96859963   
Loop time of 0.00131478 on 1 procs for 500 steps with 100 atoms

Performance: 32857.108 ns/day, 0.001 hours/ns, 380290.603 timesteps/s, 38.029 Matom-step/s
99.1% CPU use with 1 MPI tasks x 1 OpenMP threads

MPI task timing breakdown:
Section |  min time  |  avg time  |  max time  |%varavg| %total
---------------------------------------------------------------
Pair    | 0.00016421 | 0.00016421 | 0.00016421 |   0.0 | 12.49
Bond    | 3.1619e-05 | 3.1619e-05 | 3.1619e-05 |   0.0 |  2.40
Neigh   | 5.137e-05  | 5.137e-05  | 5.137e-05  |   0.0 |  3.91
Comm    | 0.00020402 | 0.00020402 | 0.00020402 |   0.0 | 15.52
Output  | 2.0145e-05 | 2.0145e-05 | 2.0145e-05 |   0.0 |  1.53
Modify  | 0.00061682 | 0.00061682 | 0.00061682 |   0.0 | 46.91
Other   |            | 0.0002266  |            |       | 17.23

Nlocal:            100 ave         100 max         100 min
Histogram: 1 0 0 0 0 0 0 0 0 0
Nghost:             52 ave          52 max          52 min
Histogram: 1 0 0 0 0 0 0 0 0 0
Neighs:              9 ave           9 max           9 min
Histogram: 1 0 0 0 0 0 0 0 0 0

Total # of neighbors = 9
Ave neighs/atom = 0.09
Ave special neighs/atom = 0
Neighbor list builds = 3
Dangerous builds = 0
defm_id = 001
Generated 0 of 0 mixed pair_coeff terms from geometric mixing rule
Setting up Verlet run ...
  Unit style    : real
  Current step  : 15340
  Time step     : 1
Per MPI rank memory allocation (min/avg/max) = 7.36 | 7.36 | 7.36 Mbytes
   Step          Temp          E_pair         E_mol          TotEng         Press          Volume    
     15340   299.97727     -0.31799215     0              88.205358      0.96859963     4152954.6    
     16000   299.96948     -0.26154105     0              88.25951       0.99492994     4048646.6    
     17000   300.0742      -0.2730916      0              88.278865      0.99267379     4048646.6    
     18000   299.87595     -0.31266638     0              88.180784      0.99448325     4048646.6    
     18340   299.95486     -0.25738203     0              88.259355      0.9786584      4122047.6    
Loop time of 0.0148048 on 1 procs for 3000 steps with 100 atoms

Performance: 17507.805 ns/day, 0.001 hours/ns, 202636.627 timesteps/s, 20.264 Matom-step/s
88.7% CPU use with 1 MPI tasks x 1 OpenMP threads

MPI task timing breakdown:
Section |  min time  |  avg time  |  max time  |%varavg| %total
---------------------------------------------------------------
Pair    | 0.0025293  | 0.0025293  | 0.0025293  |   0.0 | 17.08
Bond    | 0.00032158 | 0.00032158 | 0.00032158 |   0.0 |  2.17
Neigh   | 0.00053737 | 0.00053737 | 0.00053737 |   0.0 |  3.63
Comm    | 0.0012621  | 0.0012621  | 0.0012621  |   0.0 |  8.53
Output  | 0.00015969 | 0.00015969 | 0.00015969 |   0.0 |  1.08
Modify  | 0.0084095  | 0.0084095  | 0.0084095  |   0.0 | 56.80
Other   |            | 0.001585   |            |       | 10.71

Nlocal:            100 ave         100 max         100 min
Histogram: 1 0 0 0 0 0 0 0 0 0
Nghost:             64 ave          64 max          64 min
Histogram: 1 0 0 0 0 0 0 0 0 0
Neighs:             12 ave          12 max          12 min
Histogram: 1 0 0 0 0 0 0 0 0 0

Total # of neighbors = 12
Ave neighs/atom = 0.12
Ave special neighs/atom = 0
Neighbor list builds = 30
Dangerous builds = 0
immed_press = 0.969680286666667
immed_modulus = 10
factor = 0.992327346404628
Generated 0 of 0 mixed pair_coeff terms from geometric mixing rule
Setting up Verlet run ...
  Unit style    : real
  Current step  : 18340
  Time step     : 1
Per MPI rank memory allocation (min/avg/max) = 7.36 | 7.36 | 7.36 Mbytes
   Step          Temp          E_pair         E_mol          TotEng         Press          Volume    
     18340   299.95486     -0.25738203     0              88.259355      0.9786584      4122047.6    
     18840   303.97638     -0.2474838      0              89.456005      1.0104681      4035371.7    
Loop time of 0.00135117 on 1 procs for 500 steps with 100 atoms

Performance: 31972.338 ns/day, 0.001 hours/ns, 370050.208 timesteps/s, 37.005 Matom-step/s
99.4% CPU use with 1 MPI tasks x 1 OpenMP threads

MPI task timing breakdown:
Section |  min time  |  avg time  |  max time  |%varavg| %total
---------------------------------------------------------------
Pair    | 0.00019072 | 0.00019072 | 0.00019072 |   0.0 | 14.12
Bond    | 3.1853e-05 | 3.1853e-05 | 3.1853e-05 |   0.0 |  2.36
Neigh   | 8.1159e-05 | 8.1159e-05 | 8.1159e-05 |   0.0 |  6.01
Comm    | 0.00019386 | 0.00019386 | 0.00019386 |   0.0 | 14.35
Output  | 1.3882e-05 | 1.3882e-05 | 1.3882e-05 |   0.0 |  1.03
Modify  | 0.00060739 | 0.00060739 | 0.00060739 |   0.0 | 44.95
Other   |            | 0.0002323  |            |       | 17.19

Nlocal:            100 ave         100 max         100 min
Histogram: 1 0 0 0 0 0 0 0 0 0
Nghost:             67 ave          67 max          67 min
Histogram: 1 0 0 0 0 0 0 0 0 0
Neighs:             14 ave          14 max          14 min
Histogram: 1 0 0 0 0 0 0 0 0 0

Total # of neighbors = 14
Ave neighs/atom = 0.14
Ave special neighs/atom = 0
Neighbor list builds = 4
Dangerous builds = 0
Generated 0 of 0 mixed pair_coeff terms from geometric mixing rule
Setting up Verlet run ...
  Unit style    : real
  Current step  : 18840
  Time step     : 1
Per MPI rank memory allocation (min/avg/max) = 7.36 | 7.36 | 7.36 Mbytes
   Step          Temp          E_pair         E_mol          TotEng         Press     
     18840   303.97638     -0.2474838      0              89.456005      1.0104681    
     19000   300.81436     -0.26009447     0              88.510283      0.99914843   
     19340   299.96884     -0.21104147     0              88.309821      0.99742309   
Loop time of 0.00141554 on 1 procs for 500 steps with 100 atoms

Performance: 30518.303 ns/day, 0.001 hours/ns, 353221.094 timesteps/s, 35.322 Matom-step/s
99.1% CPU use with 1 MPI tasks x 1 OpenMP threads

MPI task timing breakdown:
Section |  min time  |  avg time  |  max time  |%varavg| %total
---------------------------------------------------------------
Pair    | 0.0001961  | 0.0001961  | 0.0001961  |   0.0 | 13.85
Bond    | 3.188e-05  | 3.188e-05  | 3.188e-05  |   0.0 |  2.25
Neigh   | 5.2513e-05 | 5.2513e-05 | 5.2513e-05 |   0.0 |  3.71
Comm    | 0.00022292 | 0.00022292 | 0.00022292 |   0.0 | 15.75
Output  | 2.0585e-05 | 2.0585e-05 | 2.0585e-05 |   0.0 |  1.45
Modify  | 0.00062643 | 0.00062643 | 0.00062643 |   0.0 | 44.25
Other   |            | 0.0002651  |            |       | 18.73

Nlocal:            100 ave         100 max         100 min
Histogram: 1 0 0 0 0 0 0 0 0 0
Nghost:             67 ave          67 max          67 min
Histogram: 1 0 0 0 0 0 0 0 0 0
Neighs:             12 ave          12 max          12 min
Histogram: 1 0 0 0 0 0 0 0 0 0

Total # of neighbors = 12
Ave neighs/atom = 0.12
Ave special neighs/atom = 0
Neighbor list builds = 3
Dangerous builds = 0
defm_id = 002
Generated 0 of 0 mixed pair_coeff terms from geometric mixing rule
Setting up Verlet run ...
  Unit style    : real
  Current step  : 19340
  Time step     : 1
Per MPI rank memory allocation (min/avg/max) = 7.36 | 7.36 | 7.36 Mbytes
   Step          Temp          E_pair         E_mol          TotEng         Press          Volume    
     19340   299.96884     -0.21104147     0              88.309821      0.99742309     4035371.7    
     20000   300.04091     -0.22877788     0              88.313353      1.0238518      3934017      
     21000   299.98234     -0.3352585      0              88.18959       1.0233856      3934017      
     22000   299.97986     -0.18497057     0              88.339143      1.023869       3934017      
     22340   300.00306     -0.18363912     0              88.347324      1.0058904      4005339.8    
Loop time of 0.0153114 on 1 procs for 3000 steps with 100 atoms

Performance: 16928.563 ns/day, 0.001 hours/ns, 195932.442 timesteps/s, 19.593 Matom-step/s
88.6% CPU use with 1 MPI tasks x 1 OpenMP threads

MPI task timing breakdown:
Section |  min time  |  avg time  |  max time  |%varavg| %total
---------------------------------------------------------------
Pair    | 0.0023423  | 0.0023423  | 0.0023423  |   0.0 | 15.30
Bond    | 0.00034849 | 0.00034849 | 0.00034849 |   0.0 |  2.28
Neigh   | 0.0005996  | 0.0005996  | 0.0005996  |   0.0 |  3.92
Comm    | 0.0014522  | 0.0014522  | 0.0014522  |   0.0 |  9.48
Output  | 0.00018443 | 0.00018443 | 0.00018443 |   0.0 |  1.20
Modify  | 0.0087726  | 0.0087726  | 0.0087726  |   0.0 | 57.29
Other   |            | 0.001612   |            |       | 10.53

Nlocal:            100 ave         100 max         100 min
Histogram: 1 0 0 0 0 0 0 0 0 0
Nghost:             70 ave          70 max          70 min
Histogram: 1 0 0 0 0 0 0 0 0 0
Neighs:              9 ave           9 max           9 min
Histogram: 1 0 0 0 0 0 0 0 0 0

Total # of neighbors = 9
Ave neighs/atom = 0.09
Ave special neighs/atom = 0
Neighbor list builds = 30
Dangerous builds = 0
immed_press = 0.99805311
immed_modulus = 10
factor = 1
Generated 0 of 0 mixed pair_coeff terms from geometric mixing rule
Setting up Verlet run ...
  Unit style    : real
  Current step  : 22340
  Time step     : 1
Per MPI rank memory allocation (min/avg/max) = 7.36 | 7.36 | 7.36 Mbytes
   Step          Temp          E_pair         E_mol          TotEng         Press     
     22340   300.00306     -0.18363912     0              88.347324      1.0058904    
     23000   300.03946     -0.24009496     0              88.301608      1.0069936    
     24000   299.97134     -0.27778965     0              88.24381       1.0036068    
     25000   299.94758     -0.20173141     0              88.312858      1.0052209    
     26000   300.00502     -0.24927813     0              88.282263      1.0087972    
     27000   300.60195     -0.40717544     0              88.300517      1.0053323    
     28000   300.19546     -0.3688466      0              88.218893      1.0023565    
     29000   299.79067     -0.31686475     0              88.151419      1.0028396    
     30000   300.0447      -0.22246674     0              88.320784      1.0046724    
     31000   298.99406      0.030780955    0              88.263986      1.0685091    
     32000   300.05272     -0.70643077     0              87.839184      0.99532876   
     32340   299.87699     -0.57010576     0              87.923654      0.99667728   
Loop time of 0.0286086 on 1 procs for 10000 steps with 100 atoms

Performance: 30200.684 ns/day, 0.001 hours/ns, 349544.948 timesteps/s, 34.954 Matom-step/s
99.2% CPU use with 1 MPI tasks x 1 OpenMP threads

MPI task timing breakdown:
Section |  min time  |  avg time  |  max time  |%varavg| %total
---------------------------------------------------------------
Pair    | 0.0040222  | 0.0040222  | 0.0040222  |   0.0 | 14.06
Bond    | 0.00067532 | 0.00067532 | 0.00067532 |   0.0 |  2.36
Neigh   | 0.0013726  | 0.0013726  | 0.0013726  |   0.0 |  4.80
Comm    | 0.0041118  | 0.0041118  | 0.0041118  |   0.0 | 14.37
Output  | 0.001039   | 0.001039   | 0.001039   |   0.0 |  3.63
Modify  | 0.012579   | 0.012579   | 0.012579   |   0.0 | 43.97
Other   |            | 0.004809   |            |       | 16.81

Nlocal:            100 ave         100 max         100 min
Histogram: 1 0 0 0 0 0 0 0 0 0
Nghost:             51 ave          51 max          51 min
Histogram: 1 0 0 0 0 0 0 0 0 0
Neighs:             20 ave          20 max          20 min
Histogram: 1 0 0 0 0 0 0 0 0 0

Total # of neighbors = 20
Ave neighs/atom = 0.2
Ave special neighs/atom = 0
Neighbor list builds = 69
Dangerous builds = 0
Generated 0 of 0 mixed pair_coeff terms from geometric mixing rule
Setting up Verlet run ...
  Unit style    : real
  Current step  : 32340
  Time step     : 1
Per MPI rank memory allocation (min/avg/max) = 7.36 | 7.36 | 7.36 Mbytes
   Step          Temp          E_pair         E_mol          TotEng         Press          Volume    
     32340   299.87699     -0.57010576     0              87.923654      0.99667728     4005339.8    
     33000   299.89787     -0.33248108     0              88.16744       1.0003227      4005348.8    
     34000   300.01723     -0.32613346     0              88.209009      1.0062572      4007123.1    
     35000   300.78615     -0.48939228     0              88.27266       1.0046621      4013331.6    
     36000   299.9901      -0.24353076     0              88.283607      1.0013686      4013846.2    
     37000   300.00533     -0.48719386     0              88.044438      1.0217703      4016214.2    
     38000   300.0004      -0.50725044     0              88.022926      0.99854972     4016250.9    
     39000   300.14859     -0.6048756      0              87.969031      0.99696532     4021920.9    
     40000   299.80104     -0.32581449     0              88.14553       0.99810378     4023280.9    
     41000   300.03219     -0.20789429     0              88.331665      1.0000528      4023432.1    
     42000   299.93675     -0.32037616     0              88.191016      1.0024502      4022957.9    
     42340   299.96211     -0.26098042     0              88.257898      1.0045976      4023611.1    
Loop time of 0.0467262 on 1 procs for 10000 steps with 100 atoms

Performance: 18490.704 ns/day, 0.001 hours/ns, 214012.773 timesteps/s, 21.401 Matom-step/s
99.5% CPU use with 1 MPI tasks x 1 OpenMP threads

MPI task timing breakdown:
Section |  min time  |  avg time  |  max time  |%varavg| %total
---------------------------------------------------------------
Pair    | 0.0085116  | 0.0085116  | 0.0085116  |   0.0 | 18.22
Bond    | 0.0010646  | 0.0010646  | 0.0010646  |   0.0 |  2.28
Neigh   | 0.0012179  | 0.0012179  | 0.0012179  |   0.0 |  2.61
Comm    | 0.0040711  | 0.0040711  | 0.0040711  |   0.0 |  8.71
Output  | 0.0010644  | 0.0010644  | 0.0010644  |   0.0 |  2.28
Modify  | 0.025857   | 0.025857   | 0.025857   |   0.0 | 55.34
Other   |            | 0.004939   |            |       | 10.57

Nlocal:            100 ave         100 max         100 min
Histogram: 1 0 0 0 0 0 0 0 0 0
Nghost:             52 ave          52 max          52 min
Histogram: 1 0 0 0 0 0 0 0 0 0
Neighs:             11 ave          11 max          11 min
Histogram: 1 0 0 0 0 0 0 0 0 0

Total # of neighbors = 11
Ave neighs/atom = 0.11
Ave special neighs/atom = 0
Neighbor list builds = 65
Dangerous builds = 0
Generated 0 of 0 mixed pair_coeff terms from geometric mixing rule
Setting up Verlet run ...
  Unit style    : real
  Current step  : 42340
  Time step     : 1
Per MPI rank memory allocation (min/avg/max) = 7.36 | 7.36 | 7.36 Mbytes
   Step          Temp          E_pair         E_mol          TotEng         Press          Volume    
     42340   299.96211     -0.26098039     0              88.257898      1.0045976      4023611.1    
     43000   300.12201     -0.32648303     0              88.23958       0.99821735     4023857.5    
     44000   299.96492     -0.19532958     0              88.324377      1.0006586      4023806.1    
     45000   299.99075     -0.24817616     0              88.279153      1.0040852      4025063.8    
     46000   299.98693     -0.14815132     0              88.378052      1.0013459      4025650.9    
     47000   300.06336     -0.23676719     0              88.311989      1.0011798      4026122.3    
     48000   299.93897     -0.23185624     0              88.280193      0.99949576     4026962.9    
     49000   300.0033      -0.17307288     0              88.35796       1.0003416      4026957.3    
     50000   300.05102     -0.37671434     0              88.168399      1.0014896      4027004.9    
     51000   300.0968      -0.60486227     0              87.953761      0.98990383     4028638.4    
     52000   299.76812     -0.1626584      0              88.298972      0.99769236     4031687.3    
     53000   299.99188     -0.012608717    0              88.515055      1.0031496      4032376.8    
     54000   299.85636     -0.18249187     0              88.305179      0.99758979     4033778.7    
     55000   300.12781     -0.27565029     0              88.292124      0.9962157      4033219.2    
     56000   299.96801     -0.033800114    0              88.486819      1.0010948      4037446.4    
     57000   301.22254     -0.25647054     0              88.634359      1.0126263      4041784.9    
     58000   300.15532     -0.36669783     0              88.209195      0.99410775     4042386.2    
     59000   300.173       -0.28321077     0              88.297899      0.99654991     4040714.7    
     60000   300.37307     -0.36022338     0              88.279928      0.9936925      4041464.5    
     61000   299.44759     -0.0051931911   0              88.36185       1.0321061      4043548      
     62000   299.98322     -0.021586959    0              88.50352       0.99986646     4044282.4    
     63000   300.04331     -0.057942519    0              88.484897      0.99894996     4044201      
     64000   299.92739     -0.18259918     0              88.326032      0.99636421     4043215.4    
     65000   300.19492     -0.34583212     0              88.241749      0.99404529     4041851.6    
     66000   299.9571      -0.083818956    0              88.43358       0.9987314      4040367.6    
     67000   300.01816     -0.14942877     0              88.38599       1.0215372      4041424.6    
     68000   299.77441     -0.15943466     0              88.304052      0.99578294     4040505.1    
     69000   300.02661     -0.2370288      0              88.300884      1.0046545      4039793.7    
     70000   300.63941     -0.07555981     0              88.64319       1.0383006      4043768.7    
     71000   299.88175     -0.21162401     0              88.28354       0.99497856     4041612.2    
     72000   299.98975     -0.018279005    0              88.508755      1.0007744      4041143.8    
     73000   300.04205     -0.1399274      0              88.402541      0.99740434     4040981.9    
     74000   300.05815     -0.21917529     0              88.328043      1.0103873      4041298.6    
     75000   300.13501     -0.26620374     0              88.303697      0.99558034     4040186.1    
     76000   299.88234     -0.077316697    0              88.418022      0.99906365     4038833.8    
     77000   299.99936     -0.010194353    0              88.519674      1.0015558      4039225.6    
     78000   300.00225     -0.017077921    0              88.513645      1.0011928      4039799.4    
     79000   299.99927     -0.024687631    0              88.505155      1.0008235      4040199.8    
     80000   300.01253     -0.033505506    0              88.50025       1.0004991      4040526.9    
     81000   300.0336      -0.088242767    0              88.451731      0.99882329     4040410.5    
     82000   299.72995     -0.23924355     0              88.211122      1.0120566      4042474.4    
     83000   299.98243     -0.022362027    0              88.50251       1.0000983      4043223.7    
     84000   299.99716     -0.0091372765   0              88.520084      1.0005535      4043383.5    
     85000   300.02142     -0.023106395    0              88.513273      1.0001199      4043591.7    
     86000   299.93661     -0.090113913    0              88.421238      0.99671474     4047474      
     87000   299.92446     -0.26988261     0              88.237884      0.99223367     4047382.1    
     88000   299.94819     -0.034494148    0              88.480276      0.99896958     4045763.2    
     89000   300.00164     -0.0059185799   0              88.524625      1.000103       4045706.1    
     90000   300.02353     -0.099793695    0              88.437209      0.99741663     4045314.1    
     91000   300.5856      -0.23976256     0              88.463107      1.0054968      4047598.1    
     92000   299.97128     -0.058915144    0              88.462668      0.99805698     4046420.8    
     93000   300.00442     -0.066002688    0              88.46536       0.99815907     4045792.1    
     94000   300.3021      -0.26131738     0              88.35789       0.99501023     4044933.1    
     95000   300.06282     -0.14887562     0              88.399722      0.99547996     4048052      
     96000   299.90256     -0.10502081     0              88.396283      0.99582755     4049019.5    
     97000   300.05404     -0.1576112      0              88.388394      0.9954057      4047581.6    
     98000   300.00826     -0.34538312     0              88.187114      1.0047346      4045324.4    
     99000   299.74613     -0.14621735     0              88.308924      0.99404718     4048772.5    
    100000   300.01675     -0.047024409    0              88.487976      0.99826498     4047879.8    
    101000   300.05741     -0.10353732     0              88.443464      0.99687309     4046999.9    
    102000   299.85415     -0.11774462     0              88.369273      0.99582016     4047458.6    
    103000   299.99349     -0.012164       0              88.515974      0.99958184     4046853.7    
    104000   300.0028      -0.010864375    0              88.520019      0.99968459     4046737.4    
    105000   300.25765     -0.23180937     0              88.374282      0.99522042     4046173.8    
    106000   299.95339      0.014362891    0              88.530667      1.0375751      4047127.1    
    107000   299.93613     -0.13133382     0              88.379878      0.99505558     4048663.5    
    108000   299.94808     -0.47118825     0              88.043549      0.99499501     4047106.4    
    109000   300.11125     -0.3582307      0              88.204657      0.99251268     4046507.7    
    110000   299.90254     -0.11519844     0              88.3861        0.99600641     4046552.2    
    111000   299.96885     -0.090171987    0              88.430693      0.99742435     4045230.4    
    112000   300.13284     -0.33580277     0              88.233457      0.99645865     4043730.7    
    113000   299.89197     -0.045673944    0              88.452506      0.9981005      4046971.2    
    114000   299.944       -0.1201582      0              88.393375      0.99542005     4049976.1    
    115000   300.37513     -0.4453194      0              88.195441      0.99197087     4048144.3    
    116000   299.84488     -0.32216284     0              88.162118      0.99068515     4050790      
    117000   299.90471     -0.10251027     0              88.399428      0.99578788     4049923.7    
    118000   300.03553     -0.06083775     0              88.479705      0.99759958     4048927.9    
    119000   299.91939     -0.25941073     0              88.246859      1.0029061      4050650.4    
    120000   299.98166     -0.035829644    0              88.488818      0.99815255     4049288.2    
    121000   300.01213     -0.045779957    0              88.487859      0.99809802     4048609.2    
    122000   300.0224      -0.17947415     0              88.357196      0.99426357     4047060.3    
    123000   299.95094     -0.27330665     0              88.242273      0.99746815     4044718.9    
    124000   299.99956     -0.050879512    0              88.479048      0.99910737     4043660.4    
    125000   299.96126     -0.029807406    0              88.488818      0.99981026     4043120.9    
    126000   300.00204     -0.014972207    0              88.515689      1.0004017      4043267.1    
    127000   300.02983     -0.15626623     0              88.382595      0.99646802     4042808.8    
    128000   299.98342     -0.021864119    0              88.503301      0.99879852     4048565.1    
    129000   300.1639      -0.15178451     0              88.426641      0.99607417     4047905.5    
    130000   299.96068     -0.045124706    0              88.473331      0.99750632     4050343.6    
    131000   300.11535     -0.11509606     0              88.449002      0.9962456      4049406.7    
    132000   299.94407     -0.023635551    0              88.489917      0.99846444     4049157.9    
    133000   300.02397     -0.036778733    0              88.500352      0.99841399     4048674.3    
    134000   299.84455     -0.15584388     0              88.328343      0.99465896     4048708.5    
    135000   300.0033      -0.057975922    0              88.473057      0.99793717     4047669.9    
    136000   300.15595     -0.19234213     0              88.383739      0.99586672     4046692.8    
    137000   300.25936     -0.25736782     0              88.349229      0.99513863     4051071      
    138000   300.02211     -0.044922968    0              88.49166       0.99787234     4049837.7    
    139000   299.95798     -0.077011249    0              88.440646      0.99698911     4048501.4    
    140000   299.99675     -0.019178935    0              88.50992       0.99910659     4047891.8    
    141000   299.99824     -0.0049322916   0              88.524608      0.99963907     4047672.3    
    142000   300.07897     -0.081770507    0              88.471591      0.99755822     4047331.6    
    142340   300.18761     -0.26850546     0              88.316916      0.99715135     4046827.3    
Loop time of 0.773555 on 1 procs for 100000 steps with 100 atoms

Performance: 11169.207 ns/day, 0.002 hours/ns, 129273.230 timesteps/s, 12.927 Matom-step/s
99.5% CPU use with 1 MPI tasks x 1 OpenMP threads

MPI task timing breakdown:
Section |  min time  |  avg time  |  max time  |%varavg| %total
---------------------------------------------------------------
Pair    | 0.082064   | 0.082064   | 0.082064   |   0.0 | 10.61
Bond    | 0.011291   | 0.011291   | 0.011291   |   0.0 |  1.46
Neigh   | 0.012965   | 0.012965   | 0.012965   |   0.0 |  1.68
Comm    | 0.042931   | 0.042931   | 0.042931   |   0.0 |  5.55
Output  | 0.012528   | 0.012528   | 0.012528   |   0.0 |  1.62
Modify  | 0.55905    | 0.55905    | 0.55905    |   0.0 | 72.27
Other   |            | 0.05273    |            |       |  6.82

Nlocal:            100 ave         100 max         100 min
Histogram: 1 0 0 0 0 0 0 0 0 0
Nghost:             66 ave          66 max          66 min
Histogram: 1 0 0 0 0 0 0 0 0 0
Neighs:              8 ave           8 max           8 min
Histogram: 1 0 0 0 0 0 0 0 0 0

Total # of neighbors = 8
Ave neighs/atom = 0.08
Ave special neighs/atom = 0
Neighbor list builds = 710
Dangerous builds = 0
Final Boundary: xl = 159.357151066026, yl = 159.357151066026, zl = 159.357151066026
Averaged  xl = 159.36435 yl = 159.36435 zl = 159.36435
Changing box ...
  orthogonal box = (-0.016725 -0.013125533 -0.013125533) to (159.34763 159.34403 159.34403)
  orthogonal box = (-0.016725 -0.016725 -0.013125533) to (159.34763 159.34763 159.34403)
  orthogonal box = (-0.016725 -0.016725 -0.016725) to (159.34763 159.34763 159.34763)
Generated 0 of 0 mixed pair_coeff terms from geometric mixing rule
Setting up Verlet run ...
  Unit style    : real
  Current step  : 142340
  Time step     : 1
Per MPI rank memory allocation (min/avg/max) = 7.36 | 7.36 | 7.36 Mbytes
   Step          Temp          E_pair         E_mol          TotEng         Press     
    142340   300.18761     -0.26847756     0              88.316944      0.99701413   
    143000   299.86508     -0.17278518     0              88.317457      0.99400382   
    143340   299.96798     -0.11847683     0              88.402133      0.99603651   
Loop time of 0.00278483 on 1 procs for 1000 steps with 100 atoms

Performance: 31025.211 ns/day, 0.001 hours/ns, 359088.089 timesteps/s, 35.909 Matom-step/s
99.9% CPU use with 1 MPI tasks x 1 OpenMP threads

MPI task timing breakdown:
Section |  min time  |  avg time  |  max time  |%varavg| %total
---------------------------------------------------------------
Pair    | 0.00034878 | 0.00034878 | 0.00034878 |   0.0 | 12.52
Bond    | 7.9574e-05 | 7.9574e-05 | 7.9574e-05 |   0.0 |  2.86
Neigh   | 0.00012946 | 0.00012946 | 0.00012946 |   0.0 |  4.65
Comm    | 0.00039645 | 0.00039645 | 0.00039645 |   0.0 | 14.24
Output  | 0.00014059 | 0.00014059 | 0.00014059 |   0.0 |  5.05
Modify  | 0.0012202  | 0.0012202  | 0.0012202  |   0.0 | 43.82
Other   |            | 0.0004698  |            |       | 16.87

Nlocal:            100 ave         100 max         100 min
Histogram: 1 0 0 0 0 0 0 0 0 0
Nghost:             64 ave          64 max          64 min
Histogram: 1 0 0 0 0 0 0 0 0 0
Neighs:             10 ave          10 max          10 min
Histogram: 1 0 0 0 0 0 0 0 0 0

Total # of neighbors = 10
Ave neighs/atom = 0.1
Ave special neighs/atom = 0
Neighbor list builds = 7
Dangerous builds = 0
Generated 0 of 0 mixed pair_coeff terms from geometric mixing rule
Setting up Verlet run ...
  Unit style    : real
  Current step  : 143340
  Time step     : 1
Per MPI rank memory allocation (min/avg/max) = 7.36 | 7.36 | 7.36 Mbytes
   Step          Temp          E_pair         E_mol          TotEng         Press     
    143340   299.96798     -0.11847683     0              88.402133      0.99603651   
    144000   300.02045     -0.15076673     0              88.385327      0.99576814   
    145000   299.96359     -0.10737799     0              88.411935      0.9965446    
    146000   299.99144     -0.03217424     0              88.495357      0.99878162   
    147000   299.99552     -0.010988053    0              88.517749      0.99949858   
    148000   300.22922     -0.28104157     0              88.316659      0.99574608   
    149000   299.98373     -0.016769724    0              88.508487      0.99926454   
    150000   299.99946     -0.043909302    0              88.48599       0.99843428   
    151000   299.79463      0.13113655     0              88.60059       1.044502     
    152000   299.99238     -0.016765007    0              88.511046      0.99929396   
    153000   300.00489     -0.021127042    0              88.510376      0.99918986   
    153340   300.01973     -0.037005253    0              88.498875      0.99871098   
Loop time of 0.0297769 on 1 procs for 10000 steps with 100 atoms

Performance: 29015.805 ns/day, 0.001 hours/ns, 335831.077 timesteps/s, 33.583 Matom-step/s
98.1% CPU use with 1 MPI tasks x 1 OpenMP threads

MPI task timing breakdown:
Section |  min time  |  avg time  |  max time  |%varavg| %total
---------------------------------------------------------------
Pair    | 0.0036561  | 0.0036561  | 0.0036561  |   0.0 | 12.28
Bond    | 0.00070267 | 0.00070267 | 0.00070267 |   0.0 |  2.36
Neigh   | 0.0015906  | 0.0015906  | 0.0015906  |   0.0 |  5.34
Comm    | 0.0044719  | 0.0044719  | 0.0044719  |   0.0 | 15.02
Output  | 0.0013017  | 0.0013017  | 0.0013017  |   0.0 |  4.37
Modify  | 0.012957   | 0.012957   | 0.012957   |   0.0 | 43.51
Other   |            | 0.005097   |            |       | 17.12

Nlocal:            100 ave         100 max         100 min
Histogram: 1 0 0 0 0 0 0 0 0 0
Nghost:             57 ave          57 max          57 min
Histogram: 1 0 0 0 0 0 0 0 0 0
Neighs:              8 ave           8 max           8 min
Histogram: 1 0 0 0 0 0 0 0 0 0

Total # of neighbors = 8
Ave neighs/atom = 0.08
Ave special neighs/atom = 0
Neighbor list builds = 77
Dangerous builds = 0

[Tengs-MacBook-Pro.local:21494] shmem: mmap: an error occurred while determining whether or not /var/folders/bk/wg487n5j7573mcb1vjqqz1j00000gn/T//ompi.Tengs-MacBook-Pro.501/jf.0/2881290240/sm_segment.Tengs-MacBook-Pro.501.abbd0000.0 could be created.

Finished.
14:00:05 04/11/2025
