ITEM: TIMESTEP
0
ITEM: NUMBER OF ATOMS
3
ITEM: BOX BOUNDS xy xz yz pp pp pp
0.0000000000000000e+00 5.4306999999999999e+00 0.0000000000000000e+00
0.0000000000000000e+00 5.4306999999999999e+00 0.0000000000000000e+00
0.0000000000000000e+00 5.4306999999999999e+00 0.0000000000000000e+00
ITEM: ATOMS id xu yu zu
1 0 0 0
3 1.3577 1.3577 1.3577
6 2.7153 2.7153 0
ITEM: TIMESTEP
1
ITEM: NUMBER OF ATOMS
3
ITEM: BOX BOUNDS xy xz yz pp pp pp
0.0000000000000000e+00 5.4306999999999999e+00 0.0000000000000000e+00
0.0000000000000000e+00 5.4306999999999999e+00 0.0000000000000000e+00
0.0000000000000000e+00 5.4306999999999999e+00 0.0000000000000000e+00
ITEM: ATOMS id xu yu zu
1 0 0 0
3 1.3577 1.3577 1.3577
6 2.7153 2.7153 0
