LAMMPS Description # full

4 atoms
3 bonds
2 angles
1 dihedrals
0 impropers

4 atom types
3 bond types
2 angle types
1 dihedral types
0 improper types

0 5.3485 xlo xhi
0 5.3485 ylo yhi
0 5.3485 zlo zhi

Masses

1 15.0350 # C CH3 n-Butane 83 #
2 15.9990 # O OH Alcohol Hydroxyl 104 #
3 1.0080 # H H Alcohol Hydroxyl 105 #
4 14.0270 # C CH2 Ethanol 107 #

Pair Coeffs

1 0.1750 3.9050
2 0.1700 3.0700
3 0.0000 0.0000
4 0.1180 3.9050

Bond Coeffs

1 260.0000 1.5260
2 553.0000 0.9450
3 386.0000 1.4250

Angle Coeffs

1 55.0000 108.5000
2 80.0000 109.5000

Dihedral Coeffs

1 0.0000 0.0000 1.0000 0.0000

Atoms

1 1 1 0.0000 -0.1600 0.7202 0.5518
2 1 4 0.2650 1.1624 1.2561 1.0927
3 1 2 -0.7000 1.2374 1.0109 2.4945
4 1 3 0.4350 0.3624 0.8655 2.8206

Bonds

1 1 1 2
2 3 2 3
3 2 3 4

Angles

1 2 1 2 3
2 1 2 3 4

Dihedrals

1 1 1 2 3 4

