LAMMPS data file via write_data, version 3 Nov 2022, timestep = 1100

180 atoms
7 atom types
179 bonds
6 bond types
178 angles
5 angle types
293 dihedrals
4 dihedral types
59 impropers
2 improper types

-10.29 84.65 xlo xhi
-48.95 46 ylo yhi
-46.61 48.34 zlo zhi

Masses

1 15.035
2 14.027
3 13.019
4 12.011
5 15.999
6 15.999
7 1.008

Pair Coeffs # lj/cut/coul/long

1 0.16 3.91
2 0.118 3.905
3 0.08 3.85
4 0.105 3.75
5 0.21 2.96
6 0.17 3
7 0 0

Bond Coeffs # harmonic

1 570 1.229
2 317 1.522
3 553 0.945
4 450 1.364
5 260 1.526
6 260 1.526

Angle Coeffs # harmonic

1 70 117
2 35 113
3 63 112.4
4 63 112.4
5 63 112.4

Dihedral Coeffs # opls

1 0 0 0 0
2 0 1.8 0 0
3 0 0 4 0
4 0 0 4 0

Improper Coeffs # cvff

1 14 -1 3
2 10.5 -1 2

Atoms # full

16 1 5 -0.5 6.230582980862403 -2.1442004856332537 -0.02243395973720095 0 0 0
27 1 4 0.55 12.540943662641462 -2.1124974567077386 -0.7969569986069589 0 0 0
28 1 5 -0.5 12.046165781602767 -1.5810869859732009 -1.793275001733191 0 0 0
39 1 4 0.55 17.25272547488973 -2.9113361038216454 -0.5894245921932507 0 0 0
40 1 5 -0.5 16.84043333231006 -2.879836025651087 -1.7320131504546947 0 0 0
26 1 3 0.08 12.590446756354076 -1.4294598008903914 0.5981797746817341 0 0 0
38 1 3 0.08 17.180952476565523 -1.6240257686340485 0.20567419615132462 0 0 0
29 1 6 -0.58 12.98015939487286 -3.39374348978216 -0.9093242419298677 0 0 0
30 1 7 0.45 12.89289966856042 -3.698280901400725 -1.79824417389104 0 0 0
41 1 6 -0.58 17.69411526702568 -4.057651615928838 -0.018088393687799645 0 0 0
42 1 7 0.45 17.75411818003922 -4.735259040473997 -0.6744704273181531 0 0 0
51 1 4 0.55 21.662326619219712 -1.9584053435746243 -0.9406947645971626 0 0 0
52 1 5 -0.5 21.04530842513867 -1.8293435356791161 -1.996093325499476 0 0 0
54 1 7 0.45 22.047221462438447 -3.7933004963502825 -1.2205947889783875 0 0 0
53 1 6 -0.58 22.217552435370195 -3.143916740024998 -0.5662527000209914 0 0 0
75 1 4 0.55 31.550012569316284 -2.7110970786786805 -1.747144824628927 0 0 0
76 1 5 -0.5 31.76784662364035 -2.762860273131943 -2.9573283776769315 0 0 0
87 1 4 0.55 37.22558655839492 -3.946621486416474 -0.9790629429803869 0 0 0
78 1 7 0.45 30.966414593573784 -4.484341127526294 -1.6853064635570885 0 0 0
89 1 6 -0.58 37.119146376584375 -4.942215069281565 -0.05789820187033999 0 0 0
80 1 3 0.08 34.24296135890758 -2.717531032047409 -0.24528823095285407 0 0 0
85 1 2 0 35.62677471093004 -2.3312379908230554 0.3174289663487726 0 0 0
86 1 3 0.08 36.83330391210123 -2.48850124743453 -0.6555233451160504 0 0 0
82 1 5 -0.5 33.8969992569111 -5.03904450994019 -0.6691075870692594 0 0 0
77 1 6 -0.58 30.947259644292508 -3.743521490723651 -1.0929284531900465 0 0 0
81 1 4 0.55 33.91381162979113 -4.170206045402701 0.19561824206457845 0 0 0
88 1 5 -0.5 37.6914936031142 -4.233662680649949 -2.0757880907566113 0 0 0
90 1 7 0.45 37.29616873162952 -5.755384019245728 -0.5078025458581531 0 0 0
111 1 4 0.55 45.66369624267495 -2.0447794909845043 -2.039401500460538 0 0 0
112 1 5 -0.5 46.32546583214355 -2.344006239543681 -3.0201665959316966 0 0 0
113 1 6 -0.58 44.684438139211935 -2.937105616872689 -1.7350644431478957 0 0 0
114 1 7 0.45 44.846136144576164 -3.70072297566905 -2.2682292308621688 0 0 0
116 1 3 0.08 48.379159442779496 -1.7550537668007715 -0.07344385478171553 0 0 0
118 1 5 -0.5 47.671939494272024 -3.9469245945018585 -0.7260693123767382 0 0 0
117 1 4 0.55 47.90766260604472 -3.2057185031876103 0.21847189183600293 0 0 0
138 1 7 0.45 56.18626977753657 -2.765841429962363 -1.5254637404784808 0 0 0
137 1 6 -0.58 55.891948805890515 -2.385949691759464 -0.7131449411846962 0 0 0
147 1 4 0.55 59.300066381615125 -3.581115418017401 0.3039961602747069 0 0 0
148 1 5 -0.5 59.229999310475215 -3.7709269771867993 -0.9086936038836962 0 0 0
159 1 4 0.55 63.502060629118304 -3.478808596112819 -0.057331285125891425 0 0 0
160 1 5 -0.5 62.53694364681864 -4.07151308932842 -0.5361932315510758 0 0 0
158 1 3 0.08 63.33311548945267 -2.1556313356985037 0.7245608057988734 0 0 0
150 1 7 0.45 58.95468475515291 -5.37558956076237 0.45136160045641427 0 0 0
166 1 5 -0.5 65.3809945730445 -1.9646143798431517 -2.316666332679762 0 0 0
161 1 6 -0.58 64.75010057204658 -4.02909407753619 -0.15426651543738046 0 0 0
162 1 7 0.45 64.7328155421993 -4.802036594453562 -0.7028592698782773 0 0 0
167 1 6 -0.58 67.09849607177038 -1.4978761425554088 -1.0739158807080538 0 0 0
168 1 7 0.45 67.4476718637728 -2.1867165125950807 -1.6292824853288919 0 0 0
9 1 4 0.55 6.13090411509294 1.2431914494618113 -0.9468334227988299 0 0 0
10 1 5 -0.5 5.733473480651644 0.9934512552995978 -2.075424002166838 0 0 0
4 1 5 -0.5 6.714119782907384 4.041399992074974 -3.5949633643676657 0 0 0
3 1 4 0.55 6.75995422174991 4.142268388233352 -2.3797101372589933 0 0 0
1 1 1 0 8.689637250000068 5.058594673344615 -1.1734650621624774 0 0 0
2 1 3 0.08 8.014004926147035 3.763774174094943 -1.6048285904539352 0 0 0
7 1 2 0 7.991597165321684 2.861156519219439 -0.3838408283623236 0 0 0
8 1 3 0.08 7.6233263198700705 1.41111596304943 -0.6507970977405566 0 0 0
13 1 2 0 8.079464273653535 0.6475314932202195 0.5941983034263346 0 0 0
14 1 3 0.08 8.228436408648252 -0.8649270030624588 0.46975854237886616 0 0 0
12 1 7 0.45 4.4241196297651975 1.2914479247304522 -0.24935830107382284 0 0 0
11 1 6 -0.58 5.291863399826561 1.4792451573851098 0.08429355320599857 0 0 0
6 1 7 0.45 4.975312782400306 4.678084526485242 -2.3417682589710274 0 0 0
5 1 6 -0.58 5.648657221102112 4.534471342856961 -1.6951850210966017 0 0 0
43 1 2 0 18.504557054435736 -0.8962599822625753 0.4483448562738375 0 0 0
50 1 3 0.08 21.761248460231158 -0.7023856115181502 -0.057605541957894364 0 0 0
55 1 2 0 23.223684129791796 -0.18489238874618255 0.19053878013481912 0 0 0
56 1 3 0.08 24.33668633070033 -1.047765887457299 0.8489498800382306 0 0 0
61 1 2 0 25.707389360530186 -0.36431517301586586 0.5556321941604322 0 0 0
62 1 3 0.08 27.04410850227394 -1.0690597658153689 1.0020110970079175 0 0 0
67 1 2 0 28.32623192959177 -0.46144485302321975 0.3310417263380637 0 0 0
68 1 3 0.08 29.690890031897293 -1.2314407128128964 0.45094299419449024 0 0 0
73 1 2 0 30.76244529157011 -0.6633294849949216 -0.5268722789123808 0 0 0
74 1 3 0.08 32.044535417364635 -1.4796750519078785 -0.9623425991166962 0 0 0
79 1 2 0 33.109290842906724 -1.7540295218516406 0.1577931612252779 0 0 0
91 1 2 0 38.09210294612454 -1.7504853145948658 -0.15223024375146302 0 0 0
97 1 2 0 40.20771088615616 -1.3076573787046062 0.8830560584231518 0 0 0
103 1 2 0 42.53102920890122 -0.8737709452325273 0.5670720747976812 0 0 0
104 1 3 0.08 44.061181511925135 -1.0401089364928635 0.6317195701963723 0 0 0
109 1 2 0 44.73025971943328 -0.2510240328528171 -0.5523503488306264 0 0 0
110 1 3 0.08 46.04712630153254 -0.8039329011705282 -1.2109144111685333 0 0 0
115 1 2 0 47.149910941076406 -0.8033358711479222 -0.12509925943539987 0 0 0
121 1 2 0 49.30334107252703 -1.0164416132603515 0.9101373211967467 0 0 0
136 1 5 -0.5 56.05686352466631 -0.5749655304734588 -1.9651977875589626 0 0 0
135 1 4 0.55 55.82610187720182 -1.0444245342168872 -0.8529212187991615 0 0 0
127 1 2 0 51.72165259041292 -0.6792131273439367 1.0730971863770302 0 0 0
133 1 2 0 54.112607823317354 -0.020373610813174035 0.6498391226540073 0 0 0
134 1 3 0.08 55.64216417394282 -0.1622714866554194 0.38605095536275563 0 0 0
165 1 4 0.55 65.77556686640744 -1.3204777991218772 -1.35646203707128 0 0 0
171 1 4 0.55 66.60103306204358 1.7852695686296747 -2.215517077430295 0 0 0
172 1 5 -0.5 66.14687279238419 1.3790937071766283 -3.285260253846751 0 0 0
164 1 3 0.08 64.8641136866217 -0.3860948121014999 -0.5303964940552025 0 0 0
169 1 2 0 65.44321208563211 0.9818050225006828 -0.09642457187651678 0 0 0
170 1 3 0.08 65.57772564957779 2.1233141674606877 -1.131229481099952 0 0 0
175 1 2 0 65.8342797277052 3.398850402247085 -0.31117135811297353 0 0 0
176 1 2 0.08 65.84236854010561 4.7743992013633125 -1.0084023785502776 0 0 0
177 1 4 0.55 67.09807774374495 5.108384563184034 -1.8313313062350278 0 0 0
178 1 5 -0.5 67.22283367927864 4.79395801241713 -3.0066879224691014 0 0 0
173 1 6 -0.58 67.92577473139605 2.0103133395258252 -2.0118854188222692 0 0 0
174 1 7 0.45 68.34365663352516 2.014102834166644 -2.8694336407449956 0 0 0
179 1 6 -0.58 68.11111789794681 5.861715667606065 -1.3134695621887047 0 0 0
180 1 7 0.45 68.82816350756633 5.860598644883646 -1.9294780644173686 0 0 0
15 1 4 0.55 6.925370061865952 -1.614251642006352 0.8419453737313698 0 0 0
22 1 5 -0.5 9.240407451454708 -4.495308475312851 1.1727842718541142 0 0 0
20 1 3 0.08 10.264261609668035 -2.390819928445153 1.1364721384383756 0 0 0
17 1 6 -0.58 6.5793388683799 -1.7956021249700906 2.1455090446663485 0 0 0
18 1 7 0.45 5.912640856814149 -2.462945899978181 2.212958056940434 0 0 0
21 1 4 0.55 9.56510297534243 -3.53602528910489 1.857923270455516 0 0 0
23 1 6 -0.58 9.373457679527203 -3.5486938437721656 3.20391593659929 0 0 0
24 1 7 0.45 9.14107004335282 -4.430954313307532 3.45616943286027 0 0 0
25 1 2 0 11.724462476816043 -2.2611160557355063 1.5982955807254418 0 0 0
32 1 3 0.08 14.969502729104414 -2.2986919160625194 1.448773035706512 0 0 0
37 1 2 0 16.44784656416797 -1.9334558240033775 1.4939767777982016 0 0 0
33 1 4 0.55 14.91502930677342 -2.6967852351323303 2.9537986767908717 0 0 0
34 1 5 -0.5 14.503686997071489 -3.820491337074281 3.2458510083105456 0 0 0
36 1 7 0.45 15.387713708041717 -2.325060151920153 4.792534632168408 0 0 0
35 1 6 -0.58 15.357319558984702 -1.8641452482646024 3.966489923840864 0 0 0
46 1 5 -0.5 19.953913264178578 -2.0317140372238747 3.675985396150827 0 0 0
58 1 5 -0.5 23.70346161926081 -2.428220105771601 2.7020778308755586 0 0 0
63 1 4 0.55 27.108127334023653 -1.0278543087355623 2.5292716116517036 0 0 0
64 1 5 -0.5 27.007631169575347 -2.061720876686035 3.188512178815653 0 0 0
70 1 5 -0.5 30.8990369875523 -2.1501783330539133 2.2983359031353987 0 0 0
83 1 6 -0.58 33.70411308475771 -4.4741541884122835 1.508820855130451 0 0 0
84 1 7 0.45 33.482759700403314 -5.387962668174818 1.5692016508122268 0 0 0
99 1 4 0.55 41.70542566552548 -1.9149029051830908 2.8742663423178687 0 0 0
100 1 5 -0.5 42.12235593508313 -2.931346169348634 3.409234529794029 0 0 0
102 1 7 0.45 41.5840627122757 -1.1936126799264393 4.590829784399602 0 0 0
92 1 3 0.08 38.940762088053084 -2.171015975551283 1.0749422491299498 0 0 0
98 1 3 0.08 41.58701093923617 -1.8059250635370088 1.3429955641255544 0 0 0
94 1 5 -0.5 38.305513251520125 -2.874300303895982 3.2788277504197625 0 0 0
93 1 4 0.55 38.251919126597734 -1.9740323197080152 2.451492147829502 0 0 0
126 1 7 0.45 49.69592100289094 -2.329326979227184 4.506135801714618 0 0 0
125 1 6 -0.58 49.84588677837146 -1.6791398802559634 3.839192601330526 0 0 0
119 1 6 -0.58 47.62427164657811 -3.611478753160547 1.4892619108980567 0 0 0
120 1 7 0.45 47.41246858041393 -4.531105525941243 1.511703659468839 0 0 0
123 1 4 0.55 50.324843998751994 -2.3332819582934303 2.7445336380379293 0 0 0
124 1 5 -0.5 50.54400629695564 -3.5174508103892546 2.938650937891514 0 0 0
122 1 3 0.08 50.59828428132607 -1.6914974040947088 1.3651832725307003 0 0 0
130 1 5 -0.5 54.050284141262175 -2.641641947650413 2.8939861338699204 0 0 0
142 1 5 -0.5 56.97183125324024 -2.267462937341093 4.156337388792094 0 0 0
129 1 4 0.55 53.54309245827241 -1.5470482784184183 2.683637753287995 0 0 0
146 1 3 0.08 59.81108509502071 -2.255239627404106 0.901745654045399 0 0 0
151 1 2 0 60.46137848979761 -2.453844118849215 2.300388622198611 0 0 0
152 1 3 0.08 61.72943434393565 -3.282255277205076 2.5427195041332276 0 0 0
157 1 2 0 63.02802091443945 -2.5115461511776727 2.189330632661936 0 0 0
149 1 6 -0.58 59.01906450733785 -4.669518993596738 1.0716991622042442 0 0 0
153 1 4 0.55 61.81943045102156 -3.738439006327898 4.007841734089489 0 0 0
154 1 5 -0.5 62.2868980374681 -4.840184492796076 4.290353141913022 0 0 0
156 1 7 0.45 61.362719455413 -3.6316614399835427 5.813079272856967 0 0 0
155 1 6 -0.58 61.357581338242206 -3.0325975575394493 5.082182580080974 0 0 0
19 1 2 0 9.519389180602973 -1.0701547824503246 1.2452998689847692 0 0 0
31 1 2 0 14.043880299660739 -1.1320823393514106 1.055332230747733 0 0 0
44 1 3 0.08 19.59319817645298 -1.5233077573901403 1.3480358910245254 0 0 0
49 1 2 0 20.982025218051987 -0.8612410314525395 1.283874214800608 0 0 0
45 1 4 0.55 19.481994277239398 -1.244333138675386 2.8555116028728014 0 0 0
47 1 6 -0.58 18.75129309980563 -0.18327960886546163 3.2985728421612044 0 0 0
48 1 7 0.45 18.726018041080867 -0.20246071138539484 4.235458936870272 0 0 0
60 1 7 0.45 23.801024425727764 -0.5895934877601154 4.059484163597793 0 0 0
59 1 6 -0.58 24.021775024044196 -0.25215735616463514 3.206399629000474 0 0 0
66 1 7 0.45 27.158801447301045 0.08839778039664656 4.054913745177739 0 0 0
65 1 6 -0.58 27.165994690776106 0.19853906689035372 3.1162516240677216 0 0 0
57 1 4 0.55 23.973319218855014 -1.292189056517408 2.3257771436033163 0 0 0
69 1 4 0.55 30.36059665267215 -1.1499885519986952 1.8411024903363271 0 0 0
71 1 6 -0.58 30.546715504326524 0.032624237679438346 2.497777897900438 0 0 0
72 1 7 0.45 31.147036421412114 -0.10379850827114921 3.2052680008560195 0 0 0
101 1 6 -0.58 41.418118961741946 -0.8840391842023537 3.7113397534235473 0 0 0
95 1 6 -0.58 37.61045350433777 -0.8195448348112963 2.787107280421697 0 0 0
96 1 7 0.45 37.27745981666956 -0.9190215138113625 3.669878095885791 0 0 0
106 1 5 -0.5 45.358332741886386 -0.9821779758672542 2.6663407175723073 0 0 0
108 1 7 0.45 44.831026452026954 1.1783853023168978 2.89548102340367 0 0 0
107 1 6 -0.58 44.308568014494284 0.9103876829161095 2.168560963370529 0 0 0
105 1 4 0.55 44.62671722407581 -0.3807386044634579 1.8968819925883036 0 0 0
128 1 3 0.08 53.19289008714193 -1.1633024427801442 1.2157334661023578 0 0 0
139 1 2 0 56.34983970866659 -0.37872443004841905 1.7508469029267542 0 0 0
132 1 7 0.45 53.792827877068 -1.0560540817229511 4.474732898571515 0 0 0
131 1 6 -0.58 53.41582683421091 -0.6491711621584656 3.7083095078955655 0 0 0
140 1 3 0.08 57.46428342532556 -1.4276974402655327 1.9691726550061002 0 0 0
145 1 2 0 58.640612498486874 -1.2209115794373844 0.975072089484507 0 0 0
141 1 4 0.55 57.604440689323944 -1.4384224565172237 3.5018308645550227 0 0 0
144 1 7 0.45 58.4259720170975 -0.683817364408563 5.041985368288084 0 0 0
143 1 6 -0.58 58.39632485464297 -0.5181417837054441 4.106455907926843 0 0 0
163 1 2 0 64.44252995120495 -1.0823217263430391 0.785902282672706 0 0 0

Velocities

16 0.002950312007677989 0.005112324785441151 -0.001545299952161232
27 0.003722701817655025 0.0025316798537226484 0.0011374498871629271
28 0.007439408532655277 0.0027794529639710145 -0.0009431658749486462
39 0.007452189401155975 0.0011492744144278335 -0.001661456604039006
40 0.004681850633468799 0.0013333612148708454 -0.0010803976311032871
26 0.006225393672646761 -0.0003165890007348585 0.0007852400687256657
38 0.0046558278452457575 -0.0004790647584082713 -0.0010634131932492764
29 0.0028290599362482127 0.0004995480310639733 -0.0020432201220556227
30 -0.008088357262781346 0.008339636541316607 -0.004820770792617107
41 0.01611539256495329 0.007133966240988643 -0.00034870546273448185
42 0.024111895199928176 0.003495103420522271 0.0019605251840466393
51 0.008524309655385831 -0.0030007846815594346 0.004403632783219608
52 0.0050734826055401725 -0.0008798918986902256 0.007473971454375737
54 0.010793495122593444 -0.010935273890820501 0.016555017518240286
53 0.013934496397533278 0.0010032936463003322 0.008136224708808319
75 -0.0002852192961841174 -0.0019255888283728302 -0.0033488665578099842
76 -0.002015197125465442 -0.002936048819576204 -0.0013655402219623085
87 0.0046142817686812216 -0.0065609062793716205 -0.003608536679208065
78 0.016530066225907407 -0.0004377748232497374 0.0062163232727031874
89 -0.0014260322933601346 -0.007421364830270419 -0.0027539231703702966
80 0.004260612390944236 -0.0069302400331649324 -0.00541662858904172
85 0.004732385374345349 -0.005264386909137718 -0.002353359841969842
86 0.005131401889966778 -0.005293559324363989 -0.0026693389099977367
82 0.001981065070650793 -0.006973980745949909 -0.005989665688737841
77 -0.00018546942482800373 -0.0016839420826223483 -0.001067740698524209
81 0.003158898038787123 -0.004865491271647432 -0.0052094279265267355
88 0.001207611655638016 -0.005647320294005864 -0.0031265442598854298
90 -0.003986603972481684 -0.001771021097734015 -0.0037348800796397287
111 -0.005017416944848862 -0.0017953948822368995 -0.004172453586913502
112 -0.00966890344981622 0.00039603026645133735 -0.009489988775142804
113 -0.006979502821803847 0.00020590896230986052 -0.002238507042119197
114 0.0006329202433631332 -0.0044193803002504405 0.0036317777362756187
116 -0.002517593373704936 -0.0010267508540657366 -0.0006182690673038707
118 0.005977498737920131 0.001669264158512375 -0.005880528655611287
117 -0.0032517722024184553 -0.0004709606533732115 -0.0020302294187957083
138 -0.01915889915900128 0.001456160384474973 -0.0010816665316596213
137 -0.009525730890922148 0.0032111262747853376 -0.0008220445357545781
147 -0.002440041569690164 -0.001933301926558238 0.00041610137576269634
148 -0.006672083005099852 -0.0008826520808969541 -0.001099107200985586
159 -0.002052258226490846 -0.001484251222297133 0.00509357223837894
160 -0.0037744398791014467 -0.00024809904026207937 0.0019156633746844902
158 -0.006620940801215671 -0.0005290098351091147 0.0018384517208545016
150 -0.01598218541253751 0.0023604954968415564 0.0009317925251713984
166 -0.012956311519453163 0.004440141464968943 -0.0014920048879732133
161 -0.0030626728103841667 0.0005288171524390483 -0.00334401621542834
162 -0.01678636100804681 -0.0008449490157616667 -0.0030498236875275654
167 -0.0038535427273050423 0.0024125538185197533 -0.0027671565845551983
168 -0.02228559064014449 -0.009811280604748748 0.002846715241088456
9 0.0047099876847848405 0.004171952750622022 -0.0021887541767515862
10 0.009846258859986317 0.0010017933032810016 -0.0037907779239610266
4 0.004484120238961045 -0.005251045112704968 -0.0020112518133242846
3 0.005333342775114306 -0.0001791424081063576 -0.0027632439708717015
1 0.004752171001139583 5.275930317939066e-06 0.003226375412598331
2 0.004607197149068787 0.0012131901213707928 0.002371164563241701
7 0.0049708266622498 0.0007925362489208757 1.528286983335768e-05
8 0.006101538268103062 0.0016320208553536675 -0.0017315576726332819
13 0.015474376356579523 -0.0003770818123291984 -0.0027502815540027263
14 0.012284105715160787 -0.00060042977449002 2.646607629287963e-05
12 0.007347178172858748 0.004264729444857487 0.007120417581559349
11 0.010400133212551545 0.011412826300325186 0.0030901402569377275
6 0.0025182378339737633 -0.0006151115605136986 -0.014710001649866905
5 0.002752237772389055 0.0028577514430364625 -0.0060753096664895615
43 0.00520259550428939 -0.0009136255771206696 0.0031861841325974095
50 0.0017103812732977822 -5.475989912447744e-05 0.0026924893129789546
55 0.002617027600584493 0.001502552379299367 -0.0012763516531717964
56 0.0019045506133434852 0.0018033091641047885 -0.0018909077340354147
61 0.002988647646260834 0.0033594269968386997 0.002680072336693402
62 0.0038823557337786725 0.0009051597518029033 0.0030957765029028662
67 0.004478261142656845 -0.0026622125035661685 0.003852186813819374
68 0.007806454088035616 -0.0011432300169094372 0.002089277518473054
73 0.00444639224443738 -0.0013366771666513105 0.00019506482080107828
74 0.002473374002550427 -0.002501401569473006 -0.0025151351601177823
79 0.004368211207322541 -0.004615784092770728 -0.005461414907521936
91 0.002862268611147852 -0.005424315029198536 -0.001001951692917256
97 0.00124680453760999 -0.001394464888846208 0.0006326735137466595
103 -0.0015560574099702897 -0.004690683281091335 0.0030283987806448147
104 -0.0005182789216033981 -0.0041273403949469096 0.0016382202361277262
109 0.0019427478686169536 -0.00021909843298396835 0.0015542433115649924
110 -0.0012102143066706514 -0.004680046192612373 -0.0011379375583643761
115 -0.002407949172411256 -0.0021103084808275843 -0.0023728210061676725
121 -0.005992185584311003 0.0023654720052545338 0.0016106379130653636
136 -0.006447815190026471 0.003956513770656389 -0.0003106174392821651
135 -0.007800928228039065 0.001834484009619189 -0.002114730612267642
127 -0.008444068620445057 0.002768392538187655 0.00820739798914084
133 -0.006043609988304672 -0.002361722696641936 0.0016263670623672052
134 -0.005915327581155835 -0.0010087920666639986 0.0020132287617317538
165 -0.0063496459599330325 0.005000062185935074 -0.002680555940254365
171 -0.012184094476767788 0.004057086514646504 -0.0027829666300839876
172 -0.012377086392136664 -0.0011796721817545505 -0.0010516264230391228
164 -0.007931574906175166 0.005752762596189785 -0.0028409042605790137
169 -0.006826528996023803 0.003567876297413734 -0.005709616845763762
170 -0.012538902296780848 0.000985634573438565 -0.0018821522280463988
175 -0.009313562913902704 -0.0012757986799839006 0.0002962542150618471
176 -0.005990070558084896 0.002819843334348193 0.0007935440426684979
177 -0.008937781055133267 0.002276001699142537 -0.001321156620889534
178 -0.008487876366194254 -0.00037178384381920655 0.00074348339915761
173 -0.009211219586912659 0.0018246902079536323 -0.002004781340329747
174 0.0017163403446186726 -0.015465573405100692 0.002224899878842754
179 -0.010401685516102278 0.0029832848045532085 -0.0021188189182027076
180 -0.014017287588584226 0.018674204890541463 -0.01195005836133221
15 0.006724994883054454 0.005820005321259043 -0.0037579314460667278
22 -0.0006353767115485289 0.00448750797361442 0.0004387839532972059
20 0.006135653953152845 0.0019770140191743843 0.0021186992272751335
17 0.001677238602552032 0.00023727146771113276 -0.0038401965114022974
18 -0.008525026256173927 0.004647592982513385 -0.013519374929057774
21 0.0037603035086958892 0.0019012900621829826 0.0008495465029938403
23 0.0029152672475271204 0.005842185071311533 0.00043921811145047765
24 -0.011234721551634852 0.0077355059152262205 -0.0008467840955230738
25 0.005931842468553229 -0.0009188553799641488 0.000792182996890891
32 0.003200070718692747 -0.00019902025851573294 -0.0007110982301496626
37 0.0035154374762542 0.0005715605102460182 -0.0019294753135264452
33 -0.0007421653637708611 -0.0004377901031458265 -0.0015481725109805704
34 0.00395880845913573 -0.0005608246525980442 -0.003824352724671887
36 0.008103009337059108 0.006241385721839593 0.0022925674878133896
35 0.0030935259393582355 -0.002457008462285185 -0.0014161024108343156
46 0.0025460730314388223 -0.009172463307276231 -0.0003701240905497026
58 0.007402863307889849 -0.001537536574875635 -0.003163722555463512
63 0.002296956305591842 0.005489769971901984 0.004614589719187125
64 -0.0015871996288625637 0.009153576227602704 0.007828573033461357
70 0.009177721122488573 0.0012389273273860889 0.0030869437720226147
83 0.0026903223231507694 -0.004909886832287113 -0.0038839573568003037
84 0.01617554735943988 -0.008078742231883757 -0.0034327780719727065
99 -0.001154857863038718 0.001307102669944629 0.006860199265567906
100 -0.0029431303703150525 0.004645786960236906 0.011608290896852606
102 0.0014863679091031542 0.0064495829075468325 0.006671117466185427
92 0.0007991241665517776 -0.0021391398009599216 0.001808922639290729
98 -0.0012786524388501948 -0.0028802245938968404 0.006268137755601846
94 -0.002992737051016101 0.002721140336957323 -2.3403442697971742e-05
93 -0.002298815438097166 0.0012388628003027506 -0.0003573269811566792
126 -0.006629592637473765 -0.0012376571560226068 0.002156175663017512
125 -0.007950233650417521 -0.003132225441777354 0.003671846908559036
119 -0.0027846304190443107 -0.0009377529326018297 -0.0013857129556827986
120 -0.005602545508944468 0.0006485064189854969 0.003329862607363573
123 -0.006114846341384319 0.0009694278349494299 0.003653723298027518
124 -0.0015131628959541097 -0.0006612301508953677 0.002697271734446228
122 -0.005120541959688423 0.0014162234995440757 0.0028551483051866633
130 -0.0039553130782681535 7.020687613265998e-05 0.002383426240594063
142 -0.006917495053442665 -0.0013497588621586459 0.0013557016164631704
129 -0.004830694134366519 -0.00015553291523621174 0.004625543916633824
146 -0.006992659858174026 -0.0007696341124302125 -0.0036862171791648708
151 -0.004866591391322497 -0.004183547859470283 -0.0020987260350747994
152 -0.003952801008547411 0.00040017095901913617 0.0006047736669973885
157 -0.0026371254327936604 0.0007005417692998636 -0.0017777645017467098
149 -0.0026749473828074147 0.00011427400414084645 0.0028172794671050276
153 0.0023161094894864546 0.003053406811039247 0.0018286773413029984
154 0.005267862823640127 0.004028164000158194 -0.0011942580784273743
156 -0.014927213583769642 -0.003590765903576654 0.004316602674146072
155 -0.0018360063447390052 -0.0008999460557645159 0.0019686771712093655
19 0.008988668432588094 -0.0002840092582564457 0.0031355314244793527
31 0.007852536857483288 0.00034677757556470434 0.0020918448394537503
44 0.004075638240311371 -0.002167006801019932 0.0017946349926557868
49 0.006000870539035977 -0.0005401519383287677 0.0031524932522942885
45 0.00351413362309614 -0.0055257130720939695 7.745996095502635e-05
47 -0.0011163200386975897 -0.01024586821979583 0.0009426302890679152
48 -0.010173850689932465 -0.010482070522379884 0.00279776304640131
60 0.010024383195660324 0.00391869589460168 0.0031796791165103772
59 0.007319337657867172 0.000767972347680325 0.00022507908278128908
66 -0.0006091674094750897 0.010288174850195893 -0.003332510598154475
65 0.0005762649719677679 0.008804531487035852 -0.0020370743414825933
57 0.005318046104674936 -0.00030442374083084985 -0.002160006363177086
69 0.006639343479361958 -0.0007105390405865732 0.00039468516175762073
71 0.00255728103777578 -0.000580759108977673 0.0039287381721756455
72 -0.0037811626650233843 -0.004773239067760968 0.00914078751633382
101 -0.0019491624308787525 0.0042355200248870494 0.004325345330595555
95 -0.003998385564632113 0.0008958033630589916 -0.0031718949357105834
96 -0.006149170659359764 -0.0005982052369543542 -0.0072634946344749965
106 0.0016865524995667367 0.0027592213807343525 -0.000987234525260748
108 -0.000577393689123453 0.004051564929899406 -0.0023400958486809237
107 -0.0008738853255019381 -0.0024969821101251503 -0.0006699019529899861
105 -0.00013167077848904248 -0.0008578141243654708 -0.0012380315551478397
128 -0.00972364454150622 2.2586990963353127e-05 0.0050329230122502415
139 -0.007651021988489616 0.0010435725861336913 0.0032152200044512267
132 -0.003026045897961696 -0.0064394573981265465 0.002439492349062824
131 -0.00031601056985198616 -0.0032372314501212794 0.006699596079375752
140 -0.004637774091178518 -0.0026226993025972806 -0.0007278734467047921
145 -0.006639260605659498 -0.0010059663978719702 -0.002437766280653747
141 -0.002764421908045472 -0.0036187657534237348 -0.0010501390404247701
144 0.007708764165658098 0.004174071202401289 -0.0011346203610187147
143 -0.0058991718336281265 -0.002450045903064053 0.0023357001019963116
163 -0.00828220104590932 0.004516935057808819 -0.001255736386498895

Bonds

1 1 16 15
2 2 27 26
3 1 28 27
4 2 39 38
5 1 40 39
6 4 29 27
7 3 29 30
8 4 41 39
9 3 41 42
10 2 51 50
11 1 52 51
12 4 53 51
13 3 53 54
14 2 75 74
15 1 76 75
16 2 87 86
17 4 89 87
18 3 89 90
19 6 85 86
20 6 85 80
21 1 82 81
22 4 77 75
23 3 77 78
24 2 81 80
25 1 88 87
26 2 111 110
27 1 112 111
28 4 113 111
29 3 113 114
30 1 118 117
31 2 117 116
32 4 137 135
33 3 137 138
34 2 147 146
35 1 148 147
36 2 159 158
37 1 160 159
38 1 166 165
39 4 161 159
40 3 161 162
41 4 167 165
42 3 167 168
43 2 9 8
44 1 10 9
45 1 4 3
46 2 3 2
47 6 1 2
48 6 7 8
49 6 7 2
50 6 13 14
51 6 13 8
52 4 11 9
53 3 11 12
54 4 5 3
55 3 5 6
56 6 43 44
57 6 43 38
58 6 55 56
59 6 55 50
60 6 61 62
61 6 61 56
62 6 67 68
63 6 67 62
64 6 73 74
65 6 73 68
66 6 79 80
67 6 79 74
68 6 91 92
69 6 91 86
70 6 97 98
71 6 97 92
72 6 103 104
73 6 103 98
74 6 109 110
75 6 109 104
76 6 115 116
77 6 115 110
78 6 121 122
79 6 121 116
80 1 136 135
81 2 135 134
82 6 127 128
83 6 127 122
84 6 133 134
85 6 133 128
86 2 165 164
87 2 171 170
88 1 172 171
89 6 169 170
90 6 169 164
91 5 175 176
92 6 175 170
93 2 177 176
94 1 178 177
95 4 173 171
96 3 173 174
97 4 179 177
98 3 179 180
99 2 15 14
100 1 22 21
101 4 17 15
102 3 17 18
103 2 21 20
104 4 23 21
105 3 23 24
106 6 25 26
107 6 25 20
108 6 37 38
109 6 37 32
110 2 33 32
111 1 34 33
112 4 35 33
113 3 35 36
114 1 46 45
115 1 58 57
116 2 63 62
117 1 64 63
118 1 70 69
119 4 83 81
120 3 83 84
121 2 99 98
122 1 100 99
123 1 94 93
124 2 93 92
125 4 125 123
126 3 125 126
127 4 119 117
128 3 119 120
129 2 123 122
130 1 124 123
131 1 130 129
132 1 142 141
133 2 129 128
134 6 151 152
135 6 151 146
136 6 157 158
137 6 157 152
138 4 149 147
139 3 149 150
140 2 153 152
141 1 154 153
142 4 155 153
143 3 155 156
144 6 19 20
145 6 19 14
146 6 31 32
147 6 31 26
148 6 49 50
149 6 49 44
150 2 45 44
151 4 47 45
152 3 47 48
153 4 59 57
154 3 59 60
155 4 65 63
156 3 65 66
157 2 57 56
158 2 69 68
159 4 71 69
160 3 71 72
161 4 101 99
162 3 101 102
163 4 95 93
164 3 95 96
165 1 106 105
166 4 107 105
167 3 107 108
168 2 105 104
169 6 139 140
170 6 139 134
171 4 131 129
172 3 131 132
173 6 145 146
174 6 145 140
175 2 141 140
176 4 143 141
177 3 143 144
178 6 163 164
179 6 163 158

Angles

1 1 26 27 28
2 1 26 27 29
3 1 38 39 40
4 1 38 39 41
5 5 25 26 31
6 5 25 26 27
7 5 37 38 43
8 5 37 38 39
9 2 27 29 30
10 2 39 41 42
11 1 50 51 52
12 1 50 51 53
13 2 51 53 54
14 1 74 75 76
15 1 74 75 77
16 1 86 87 88
17 1 86 87 89
18 2 87 89 90
19 5 79 80 85
20 5 79 80 81
21 4 86 85 80
22 5 85 86 91
23 5 85 86 87
24 2 75 77 78
25 1 80 81 82
26 1 80 81 83
27 1 110 111 112
28 1 110 111 113
29 2 111 113 114
30 5 115 116 121
31 5 115 116 117
32 1 116 117 118
33 1 116 117 119
34 2 135 137 138
35 1 146 147 148
36 1 146 147 149
37 1 158 159 160
38 1 158 159 161
39 5 157 158 163
40 5 157 158 159
41 2 159 161 162
42 2 165 167 168
43 1 8 9 10
44 1 8 9 11
45 1 2 3 4
46 1 2 3 5
47 5 1 2 7
48 5 1 2 3
49 4 8 7 2
50 5 7 8 13
51 5 7 8 9
52 4 14 13 8
53 5 13 14 19
54 5 13 14 15
55 2 9 11 12
56 2 3 5 6
57 4 44 43 38
58 5 49 50 55
59 5 49 50 51
60 4 56 55 50
61 5 55 56 61
62 5 55 56 57
63 4 62 61 56
64 5 61 62 67
65 5 61 62 63
66 4 68 67 62
67 5 67 68 73
68 5 67 68 69
69 4 74 73 68
70 5 73 74 79
71 5 73 74 75
72 4 80 79 74
73 4 92 91 86
74 4 98 97 92