LAMMPS Description # full

1 atoms
0 bonds
0 angles
0 dihedrals
0 impropers

1 atom types
0 bond types
0 angle types
0 dihedral types
0 improper types

0 4.0000 xlo xhi
0 4.0000 ylo yhi
0 4.0000 zlo zhi

Masses

1 39.9480 # Ar Argon Atom 211 #

Pair Coeffs

1 0.2340 3.4010

Atoms

1 1 1 0.0000 0.0000 0.0000 0.0000

