LAMMPS Description # full

56 atoms
49 bonds
42 angles
35 dihedrals
0 impropers

2 atom types
2 bond types
2 angle types
1 dihedral types
0 improper types

0 8.2093 xlo xhi
0 8.2093 ylo yhi
0 8.2093 zlo zhi

Masses

1 15.0350 # C CH3 n-Butane 83 #
2 14.0270 # C CH2 n-Butane 86 #

Pair Coeffs

1 0.1750 3.9050
2 0.1180 3.9050

Bond Coeffs

1 260.0000 1.5260
2 260.0000 1.5260

Angle Coeffs

1 63.0000 112.4000
2 63.0000 112.4000

Dihedral Coeffs

1 0.0000 0.0000 4.0000 0.0000

Atoms

1 1 1 0.0000 5.5361 1.1874 1.1172
2 1 2 0.0000 4.4081 2.2063 1.2508
3 1 2 0.0000 4.8922 3.5394 1.8141
4 1 2 0.0000 4.6451 4.7002 0.8549
5 1 2 0.0000 3.4168 4.4777 -0.0230
6 1 2 0.0000 2.5989 5.7520 -0.2123
7 1 2 0.0000 1.2525 5.4851 -0.8791
8 1 1 0.0000 1.1421 4.0614 -1.4171
9 2 1 0.0000 1.2623 0.6889 4.2702
10 2 2 0.0000 0.0011 1.5480 4.2679
11 2 2 0.0000 -1.2651 0.7217 4.0614
12 2 2 0.0000 -2.3632 1.5079 3.3510
13 2 2 0.0000 -3.5312 0.6222 2.9270
14 2 2 0.0000 -3.0954 -0.8079 2.6211
15 2 2 0.0000 -1.6005 -0.9111 2.3326
16 2 1 0.0000 -0.8081 -1.4059 3.5392
17 3 1 0.0000 1.3486 1.0523 -1.1669
18 3 2 0.0000 0.4931 2.0341 -0.3713
19 3 2 0.0000 -0.4930 1.3281 0.5549
20 3 2 0.0000 -0.2739 1.6889 2.0213
21 3 2 0.0000 -0.4328 3.1840 2.2823
22 3 2 0.0000 -1.0075 3.9264 1.0794
23 3 2 0.0000 -1.9314 3.0478 0.2408
24 3 1 0.0000 -1.3254 2.6939 -1.1142
25 4 1 0.0000 7.1287 4.8699 7.4339
26 4 2 0.0000 6.2407 4.4324 6.2725
27 4 2 0.0000 4.9384 3.7928 6.7452
28 4 2 0.0000 3.9482 3.5781 5.6040
29 4 2 0.0000 4.6298 3.1004 4.3249
30 4 2 0.0000 6.0605 3.6165 4.2008
31 4 2 0.0000 6.1161 5.1185 3.9374
32 4 1 0.0000 5.8600 5.4619 2.4728
33 5 1 0.0000 -0.0956 5.0334 4.0444
34 5 2 0.0000 -0.0570 5.1290 2.5219
35 5 2 0.0000 1.3629 5.2839 1.9848
36 5 2 0.0000 1.8457 4.0370 1.2495
37 5 2 0.0000 2.0896 2.8631 2.1935
38 5 2 0.0000 1.1763 2.9001 3.4155
39 5 2 0.0000 1.8794 3.4566 4.6503
40 5 1 0.0000 2.1339 2.3854 5.7068
41 6 1 0.0000 6.5128 6.9634 -1.5927
42 6 2 0.0000 5.8640 6.5553 -0.2731
43 6 2 0.0000 4.4222 7.0418 -0.1591
44 6 2 0.0000 3.7734 6.6338 1.1605
45 6 2 0.0000 2.4280 7.3186 1.3833
46 6 2 0.0000 2.2301 7.7541 2.8324
47 6 2 0.0000 1.3563 6.7804 3.6180
48 6 1 0.0000 1.5431 6.9182 5.1262
49 7 1 0.0000 4.1687 4.9532 3.3860
50 7 2 0.0000 3.0955 5.6776 4.1936
51 7 2 0.0000 3.6318 6.2268 5.5124
52 7 2 0.0000 4.9143 7.0329 5.3281
53 7 2 0.0000 4.7023 8.5254 5.5655
54 7 2 0.0000 3.4449 8.8115 6.3814
55 7 2 0.0000 3.7147 9.7469 7.5566
56 7 1 0.0000 2.7289 10.9104 7.6120

Bonds

1 1 1 2
2 2 3 4
3 2 5 6
4 1 7 8
5 2 2 3
6 2 4 5
7 2 6 7
8 1 9 10
9 2 11 12
10 2 13 14
11 1 15 16
12 2 10 11
13 2 12 13
14 2 14 15
15 1 17 18
16 2 19 20
17 2 21 22
18 1 23 24
19 2 18 19
20 2 20 21
21 2 22 23
22 1 25 26
23 2 27 28
24 2 29 30
25 1 31 32
26 2 26 27
27 2 28 29
28 2 30 31
29 1 33 34
30 2 35 36
31 2 37 38
32 1 39 40
33 2 34 35
34 2 36 37
35 2 38 39
36 1 41 42
37 2 43 44
38 2 45 46
39 1 47 48
40 2 42 43
41 2 44 45
42 2 46 47
43 1 49 50
44 2 51 52
45 2 53 54
46 1 55 56
47 2 50 51
48 2 52 53
49 2 54 55

Angles

1 1 1 2 3
2 2 4 3 2
3 2 3 4 5
4 2 6 5 4
5 2 5 6 7
6 1 8 7 6
7 1 9 10 11
8 2 12 11 10
9 2 11 12 13
10 2 14 13 12
11 2 13 14 15
12 1 16 15 14
13 1 17 18 19
14 2 20 19 18
15 2 19 20 21
16 2 22 21 20
17 2 21 22 23
18 1 24 23 22
19 1 25 26 27
20 2 28 27 26
21 2 27 28 29
22 2 30 29 28
23 2 29 30 31
24 1 32 31 30
25 1 33 34 35
26 2 36 35 34
27 2 35 36 37
28 2 38 37 36
29 2 37 38 39
30 1 40 39 38
31 1 41 42 43
32 2 44 43 42
33 2 43 44 45
34 2 46 45 44
35 2 45 46 47
36 1 48 47 46
37 1 49 50 51
38 2 52 51 50
39 2 51 52 53
40 2 54 53 52
41 2 53 54 55
42 1 56 55 54

Dihedrals

1 1 1 2 3 4
2 1 2 3 4 5
3 1 3 4 5 6
4 1 4 5 6 7
5 1 5 6 7 8
6 1 9 10 11 12
7 1 10 11 12 13
8 1 11 12 13 14
9 1 12 13 14 15
10 1 13 14 15 16
11 1 17 18 19 20
12 1 18 19 20 21
13 1 19 20 21 22
14 1 20 21 22 23
15 1 21 22 23 24
16 1 25 26 27 28
17 1 26 27 28 29
18 1 27 28 29 30
19 1 28 29 30 31
20 1 29 30 31 32
21 1 33 34 35 36
22 1 34 35 36 37
23 1 35 36 37 38
24 1 36 37 38 39
25 1 37 38 39 40
26 1 41 42 43 44
27 1 42 43 44 45
28 1 43 44 45 46
29 1 44 45 46 47
30 1 45 46 47 48
31 1 49 50 51 52
32 1 50 51 52 53
33 1 51 52 53 54
34 1 52 53 54 55
35 1 53 54 55 56

