LAMMPS Description # full

50 atoms
30 bonds
20 angles
10 dihedrals
0 impropers

3 atom types
2 bond types
1 angle types
1 dihedral types
0 improper types

0 8.4491 xlo xhi
0 8.4491 ylo yhi
0 8.4491 zlo zhi

Masses

1 15.0350 # C CH3 n-Butane 83 #
2 14.0270 # C CH2 n-Butane 86 #
3 39.9480 # Ar Argon Atom 211 #

Pair Coeffs

1 0.1750 3.9050
2 0.1180 3.9050
3 0.2340 3.4010

Bond Coeffs

1 260.0000 1.5260
2 260.0000 1.5260

Angle Coeffs

1 63.0000 112.4000

Dihedral Coeffs

1 0.0000 0.0000 4.0000 0.0000

Atoms

1 1 3 0.0000 8.1169 4.1767 5.8096
2 2 3 0.0000 8.0494 1.5335 7.1897
3 3 3 0.0000 7.4717 7.3335 1.3998
4 4 3 0.0000 7.1055 4.1998 3.4387
5 5 3 0.0000 1.1688 0.4172 0.9324
6 6 3 0.0000 5.4876 8.1071 8.3338
7 7 3 0.0000 6.2585 3.2715 7.6042
8 8 3 0.0000 3.2909 3.9639 1.4018
9 9 3 0.0000 2.3623 1.3634 6.4904
10 10 3 0.0000 5.1264 4.5322 5.3231
11 11 1 0.0000 4.0781 1.6636 5.0556
12 11 2 0.0000 4.1009 0.4419 4.1414
13 11 2 0.0000 3.7172 -0.8403 4.8746
14 11 1 0.0000 2.9486 -0.5651 6.1639
15 12 1 0.0000 1.6234 3.5252 0.7357
16 12 2 0.0000 0.4284 4.3392 1.2234
17 12 2 0.0000 0.3702 4.4321 2.7454
18 12 1 0.0000 1.3221 5.4878 3.3005
19 13 1 0.0000 5.5436 5.7137 6.7696
20 13 2 0.0000 4.8374 4.4538 7.2622
21 13 2 0.0000 3.3776 4.3954 6.8215
22 13 1 0.0000 2.6715 3.1355 7.3141
23 14 1 0.0000 2.4449 1.2955 2.5726
24 14 2 0.0000 1.6355 2.4060 3.2362
25 14 2 0.0000 2.4859 3.2724 4.1608
26 14 1 0.0000 3.7652 3.7600 3.4868
27 15 1 0.0000 3.6525 6.1015 0.9125
28 15 2 0.0000 3.1794 7.2481 0.0237
29 15 2 0.0000 3.0816 8.5691 0.7814
30 15 1 0.0000 3.7897 9.7095 0.0558
31 16 1 0.0000 6.0114 3.1338 1.9641
32 16 2 0.0000 6.2740 1.7295 1.4278
33 16 2 0.0000 5.0566 0.8191 1.5610
34 16 1 0.0000 5.3392 -0.4072 2.4242
35 17 1 0.0000 0.6732 9.1234 3.9954
36 17 2 0.0000 1.0589 8.6458 5.3925
37 17 2 0.0000 1.1762 7.1266 5.4759
38 17 1 0.0000 1.5619 6.6489 6.8730
39 18 1 0.0000 7.2627 7.8244 6.9101
40 18 2 0.0000 7.5534 6.4691 6.2717
41 18 2 0.0000 7.4536 5.3215 7.2726
42 18 1 0.0000 8.8144 4.7101 7.5938
43 19 1 0.0000 6.8804 0.9062 5.2281
44 19 2 0.0000 6.4211 1.2115 3.8052
45 19 2 0.0000 7.5340 1.0141 2.7799
46 19 1 0.0000 8.0216 2.3340 2.1896
47 20 1 0.0000 6.3226 7.0377 4.5841
48 20 2 0.0000 7.0132 6.1835 3.5248
49 20 2 0.0000 6.1741 6.0363 2.2587
50 20 1 0.0000 6.9547 5.3949 1.1151

Bonds

1 1 11 12
2 2 12 13
3 1 13 14
4 1 15 16
5 2 16 17
6 1 17 18
7 1 19 20
8 2 20 21
9 1 21 22
10 1 23 24
11 2 24 25
12 1 25 26
13 1 27 28
14 2 28 29
15 1 29 30
16 1 31 32
17 2 32 33
18 1 33 34
19 1 35 36
20 2 36 37
21 1 37 38
22 1 39 40
23 2 40 41
24 1 41 42
25 1 43 44
26 2 44 45
27 1 45 46
28 1 47 48
29 2 48 49
30 1 49 50

Angles

1 1 11 12 13
2 1 12 13 14
3 1 15 16 17
4 1 16 17 18
5 1 19 20 21
6 1 20 21 22
7 1 23 24 25
8 1 24 25 26
9 1 27 28 29
10 1 28 29 30
11 1 31 32 33
12 1 32 33 34
13 1 35 36 37
14 1 36 37 38
15 1 39 40 41
16 1 40 41 42
17 1 43 44 45
18 1 44 45 46
19 1 47 48 49
20 1 48 49 50

Dihedrals

1 1 11 12 13 14
2 1 15 16 17 18
3 1 19 20 21 22
4 1 23 24 25 26
5 1 27 28 29 30
6 1 31 32 33 34
7 1 35 36 37 38
8 1 39 40 41 42
9 1 43 44 45 46
10 1 47 48 49 50

