LAMMPS Description # atomic

8 atoms

1 atom types

0 5.4307 xlo xhi
0 5.4307 ylo yhi
0 5.4307 zlo zhi
0.0000 0.0000 0.0000 xy xz yz

Masses

1 28.0860 # Si #

Atoms

1 1 0.0000 0.0000 0.0000
2 1 0.0000 2.7153 2.7153
3 1 1.3577 1.3577 1.3577
4 1 1.3577 4.0730 4.0730
5 1 2.7153 0.0000 2.7153
6 1 2.7153 2.7153 0.0000
7 1 4.0730 1.3577 4.0730
8 1 4.0730 4.0730 1.3577

