LAMMPS Description # full

5 atoms
4 bonds
3 angles
2 dihedrals
1 impropers

5 atom types
4 bond types
3 angle types
1 dihedral types
1 improper types

0 5.8425 xlo xhi
0 5.8425 ylo yhi
0 5.8425 zlo zhi

Masses

1 12.0110 # C C Carboxylic Acid 133 #
2 15.9990 # O =O Carboxylic Acid 134 #
3 15.9990 # O -O- Carboxylic Acid 135 #
4 1.0080 # H H Carboxylic Acid 136 #
5 15.0350 # C CH3 Acetic Acid 137 #

Pair Coeffs

1 0.1050 3.7500
2 0.2100 2.9600
3 0.1700 3.0000
4 0.0000 0.0000
5 0.1600 3.9100

Bond Coeffs

1 570.0000 1.2290
2 469.0000 1.4000
3 553.0000 0.9450
4 450.0000 1.3640

Angle Coeffs

1 70.0000 117.0000
2 80.0000 126.0000
3 35.0000 113.0000

Dihedral Coeffs

1 0.0000 1.8000 0.0000 0.0000

Improper Coeffs

1 10.5000 -1 2

Atoms

1 1 5 0.0800 0.3948 6.0088 3.3807
2 1 1 0.5500 0.1549 4.9700 4.2880
3 1 2 -0.5000 -0.9784 4.7117 4.6870
4 1 3 -0.5800 1.2989 4.3197 4.6470
5 1 4 0.4500 1.1981 3.8001 5.4299

Bonds

1 2 1 2
2 1 2 3
3 4 2 4
4 3 4 5

Angles

1 1 1 2 4
2 2 3 2 4
3 3 2 4 5

Dihedrals

1 1 1 2 4 5
2 1 3 2 4 5

Impropers

1 1 1 3 2 4

