ITEM: TIMESTEP
105000
ITEM: NUMBER OF ATOMS
3000
ITEM: BOX BOUNDS pp pp pp
-1.5617963042868865e+00 4.6282496304287477e+01
-1.5617963042868865e+00 4.6282496304287477e+01
-1.5617963042868865e+00 4.6282496304287477e+01
ITEM: ATOMS id xu yu zu
1 34.5436 -18.9579 24.3465
2 33.8737 -19.4455 25.626
3 32.4244 -19.6992 25.2728
4 31.6414 -20.6376 26.1739
5 30.2913 -20.9518 25.7754
6 29.5268 -22.097 26.4119
7 28.4057 -5.56948 26.7991
8 29.5842 -5.48136 25.8241
9 30.6579 -4.55207 26.3576
10 31.8492 -4.40235 25.4301
11 32.8178 -3.44257 26.0709
12 34.2818 -3.63428 25.614
13 39.8043 -1.47786 30.1706
14 38.9639 -0.937892 29.0768
15 37.7489 -0.232824 29.6435
16 37.0379 0.589092 28.5583
17 35.8286 1.40842 29.1414
18 35.1937 2.43929 28.1308
19 6.39661 32.6761 2.37059
20 5.73135 32.2221 1.08866
21 6.13108 33.0692 -0.149682
22 5.30097 32.8726 -1.3974
23 5.65133 33.7979 -2.54065
24 4.5973 33.5256 -3.58728
25 13.0131 34.253 7.90828
26 13.3262 34.8406 9.25911
27 12.9862 33.9143 10.4095
28 13.507 34.4798 11.702
29 13.1279 33.5907 12.8533
30 13.801 34.2539 14.034
31 16.5347 38.3163 13.2318
32 17.4585 37.7459 12.1915
33 16.6258 37.2522 10.9835
34 17.3551 36.4734 9.87474
35 16.6043 36.3064 8.56767
36 17.2142 35.2268 7.58715
37 26.9075 -1.27364 44.6723
38 26.5029 0.000253704 43.9876
39 26.9086 -0.0196069 42.4838
40 26.4399 1.23413 41.7909
41 26.677 1.24673 40.3509
42 26.219 2.51171 39.6719
43 16.3761 35.9394 27.119
44 16.8959 35.5162 28.4518
45 16.2091 36.3165 29.5369
46 16.8634 36.2833 30.9249
47 15.756 36.4625 31.9587
48 16.2847 36.4102 33.3779
49 27.9562 40.2604 8.27765
50 28.6035 39.4178 9.32017
51 27.6966 38.187 9.60938
52 28.2649 37.2706 10.6812
53 27.3406 36.02 10.7603
54 28.0216 34.813 11.3864
55 23.1531 49.0837 27.1774
56 21.9836 48.2274 27.6513
57 22.4163 47.0227 28.4343
58 21.2169 46.1235 28.7004
59 21.6212 44.7055 29.0722
60 20.4289 43.7591 29.2871
61 19.7123 14.9366 9.60334
62 19.8839 15.7475 10.8636
63 21.0543 16.6704 10.8831
64 21.1395 17.3474 12.2388
65 22.1851 18.44 12.241
66 22.5329 18.8917 13.7271
67 19.8357 24.6336 29.2503
68 18.4252 24.4387 29.9467
69 17.7142 23.1419 29.5586
70 16.186 22.9929 29.8696
71 15.7969 23.2393 31.3679
72 14.3056 22.9575 31.6358
73 48.2126 -5.66035 -18.2156
74 47.463 -6.98632 -18.2304
75 47.0047 -7.31739 -19.7213
76 46.0223 -8.46308 -20.0377
77 44.62 -8.09478 -19.4154
78 43.7243 -9.3257 -19.3735
79 16.7635 49.9076 34.5242
80 18.214 49.7045 34.3782
81 18.8249 50.0359 32.9916
82 20.3203 49.7069 33.1158
83 21.2311 49.9157 31.9156
84 22.6842 49.7663 32.1451
85 33.3259 37.2588 12.7778
86 33.2385 35.9078 12.0587
87 32.34 35.9252 10.8159
88 32.2455 34.5737 10.0124
89 31.667 33.3662 10.7411
90 31.5428 32.1199 9.88515
91 14.1077 43.5404 8.42559
92 13.9166 44.1777 9.82821
93 15.2414 44.0227 10.6848
94 15.1117 44.6586 12.0935
95 16.5231 44.7487 12.6876
96 16.3856 45.1485 14.1747
97 25.6954 44.2094 25.0551
98 24.2431 44.4439 25.4825
99 23.2451 43.4207 24.9892
100 21.8116 43.8251 25.1555
101 21.0319 42.7124 24.4041
102 19.5588 42.9017 24.5975
103 29.9706 0.921286 -9.54085
104 31.3478 1.56199 -9.49905
105 31.9841 1.4829 -8.0609
106 33.4605 1.888 -7.97246
107 33.9018 2.04142 -6.56824
108 35.4066 2.23553 -6.46105
109 35.113 36.0647 26.1696
110 36.2424 35.1835 26.7353
111 37.5513 35.9106 26.9733
112 38.61 35.0219 27.698
113 39.9159 35.7649 27.9461
114 41.0386 34.8552 28.4212
115 37.382 36.7934 40.7689
116 36.4698 35.8269 41.5404
117 35.0646 35.8379 41.0081
118 34.2499 34.7285 41.7082
119 32.8595 34.5536 41.1788
120 31.9774 33.458 41.7394
121 41.4435 29.3677 26.5851
122 42.2153 28.4899 27.5671
123 41.9028 26.9858 27.4737
124 42.9777 26.1697 28.2654
125 42.5353 24.6498 28.5432
126 43.4773 23.8169 29.3216
127 20.6566 11.36 29.2363
128 20.8598 10.6573 27.8917
129 22.069 11.2882 27.2213
130 22.5551 10.6491 25.9327
131 23.5565 11.5517 25.214
132 24.0749 10.9218 23.9594
133 18.0955 -4.73491 1.95223
134 17.0263 -3.68419 1.69963
135 17.442 -2.74358 0.636062
136 16.2426 -1.85304 0.240719
137 16.7405 -0.839466 -0.807644
138 15.5723 -0.0919247 -1.4642
139 43.5469 -1.55673 6.464
140 43.3571 -0.638127 7.75092
141 44.6286 -0.330659 8.49672
142 44.4226 0.748919 9.55507
143 45.662 1.05694 10.2971
144 45.3523 2.15282 11.3318
145 44.9519 -5.74582 -2.32001
146 44.4779 -6.52663 -1.20064
147 43.0659 -7.07283 -1.30799
148 42.4198 -7.85823 -0.155379
149 41.175 -8.51383 -0.314317
150 40.3348 -8.8912 0.868921
151 9.24096 -8.23332 45.0235
152 10.0152 -7.07043 45.5674
153 10.4548 -7.35874 47.004
154 11.1317 -6.13304 47.6345
155 11.4509 -6.31219 49.0779
156 12.3312 -5.20561 49.6337
157 -8.64276 -22.7843 32.2711
158 -7.09962 -22.9688 32.1806
159 -6.2362 -22.0965 33.1555
160 -4.85902 -21.8017 32.6746
161 -4.12678 -20.8328 33.6072
162 -2.60596 -20.8375 33.2373
163 -5.46819 -10.6594 39.1958
164 -6.83431 -10.0758 39.1333
165 -6.95668 -9.33147 37.7194
166 -8.34778 -8.71078 37.3489
167 -9.35754 -9.86661 37.1861
168 -10.6846 -9.29331 36.7111
169 21.5195 37.6544 24.0312
170 21.2006 36.1732 24.0507
171 21.9752 35.4239 22.9891
172 21.7701 33.9095 23.0171
173 22.8141 33.1492 22.1948
174 22.6248 31.659 22.3786
175 12.319 -7.3221 41.5729
176 12.4711 -8.45598 42.5582
177 13.9098 -8.64627 42.8485
178 14.268 -9.64519 43.9382
179 15.7142 -9.9205 44.0279
180 15.9605 -10.7302 45.3393
181 6.50863 23.1106 8.78621
182 6.01326 22.5877 10.1323
183 6.30915 21.1328 10.289
184 5.36325 20.5652 11.3373
185 5.79339 19.1303 11.707
186 4.90115 18.3726 12.8057
187 -13.8785 13.6923 21.0721
188 -13.4284 12.7759 22.1952
189 -14.0906 13.3127 23.488
190 -14.0101 12.3494 24.6793
191 -15.0191 12.6058 25.776
192 -14.6691 11.8899 27.0358
193 16.4846 13.4821 6.63109
194 15.5878 13.6768 5.40079
195 15.609 12.557 4.38442
196 14.5793 12.6194 3.27214
197 14.7185 11.3768 2.37136
198 14.009 11.5036 1.05201
199 31.4888 36.5637 16.4806
200 30.8624 36.1153 17.819
201 31.3433 36.8137 19.1005
202 30.6231 36.3288 20.363
203 31.1872 36.8835 21.629
204 30.2277 36.4654 22.7894
205 29.3488 20.9012 20.4176
206 30.7656 20.7695 19.859
207 31.5565 22.0816 19.8282
208 32.9558 21.8056 19.2604
209 33.7964 22.9848 19.072
210 35.1962 22.4939 18.786
211 21.2201 30.7736 5.49214
212 20.819 31.6269 4.27738
213 20.3444 33.0246 4.59526
214 20.301 33.7487 3.25732
215 20.4031 35.2167 3.32216
216 20.3626 35.7917 1.93421
217 26.8372 19.1291 7.14554
218 28.1132 18.7619 7.94505
219 29.1836 19.8255 7.7536
220 30.5035 19.2499 8.22548
221 31.6771 20.1944 8.03522
222 32.4127 20.0279 6.68245
223 42.2262 38.7005 31.909
224 41.6096 38.107 33.1529
225 42.146 36.7023 33.4469
226 41.5185 36.0605 34.6474
227 42.2564 34.8409 35.2196
228 41.5542 34.2919 36.4588
229 25.4961 -2.03344 8.21453
230 24.704 -3.00839 7.37118
231 25.4282 -3.31986 6.07012
232 24.651 -3.92287 4.89385
233 25.5341 -4.37075 3.73989
234 25.0371 -5.48412 2.83486
235 67.0373 20.8982 11.6687
236 66.3045 19.5951 11.1784
237 66.3232 19.4848 9.62176
238 65.4008 18.4522 9.02395
239 65.5594 18.314 7.47918
240 64.3448 17.5978 6.96464
241 53.8572 11.8904 12.0865
242 53.6998 13.2721 12.6876
243 54.9895 14.0199 13.0491
244 54.7345 15.2497 13.9657
245 56.0338 16.12 14.1853
246 55.689 17.0156 15.3781
247 9.91858 -18.7287 0.406588
248 9.99457 -17.2561 0.58882
249 10.8737 -16.8406 1.74399
250 10.797 -15.2759 2.00428
251 11.4185 -14.8683 3.3559
252 11.2922 -13.417 3.72994
253 9.52692 2.39577 -10.4849
254 8.79338 2.64167 -9.17688
255 8.76943 4.18809 -8.82518
256 7.87778 4.60794 -7.6539
257 7.88163 6.10243 -7.36196
258 7.02701 6.52245 -6.27952
259 54.1292 12.3944 17.3802
260 53.7154 10.8916 17.056
261 52.6437 10.7721 15.9639
262 51.8492 9.4599 16.011
263 50.7348 9.3715 14.9106
264 49.744 8.22377 15.0615
265 14.1473 4.08639 15.9681
266 14.0084 2.6341 15.7352
267 12.9954 2.06432 16.7465
268 12.6248 0.591901 16.6967
269 13.857 -0.321579 17.0146
270 13.4241 -1.73604 17.4655
271 -3.13705 12.7301 0.756232
272 -4.20758 13.8794 0.665554
273 -4.89786 14.0992 1.99605
274 -5.94762 15.2795 1.88227
275 -6.59418 15.6298 3.26498
276 -7.87161 16.4989 3.25543
277 25.4029 26.4108 14.8781
278 25.8975 27.8389 14.7904
279 27.3649 27.923 14.2258
280 27.9296 29.3286 14.2573
281 29.0406 29.5058 13.2373
282 29.5816 30.9029 13.2519
283 31.9143 13.6362 32.1912
284 32.0082 14.1519 30.7789
285 30.7719 13.7578 29.9434
286 30.522 14.4077 28.6087
287 29.2903 13.8382 27.8635
288 29.3587 14.1827 26.389
289 25.0786 14.2347 27.3778
290 24.8304 15.4987 26.6051
291 25.9566 15.8361 25.7189
292 25.7599 16.8612 24.6018
293 26.895 16.7126 23.6526
294 27.08 17.7995 22.613
295 24.3476 21.4525 26.819
296 25.8277 21.8781 26.6127
297 26.851 20.7584 26.3598
298 28.2225 21.2801 25.9523
299 29.3811 20.3056 25.7624
300 30.5465 20.9898 25.0643
301 6.68709 2.55681 6.73058
302 7.42334 3.74134 6.06409
303 6.44603 4.77368 5.53383
304 7.22737 6.02187 5.02755
305 6.36647 7.13061 4.47364
306 7.20912 8.30144 3.8914
307 25.0658 27.3083 31.4022
308 24.1437 27.4641 32.6022
309 22.7468 26.8222 32.3364
310 21.6565 27.0656 33.356
311 20.3505 26.4354 32.8878
312 19.0559 26.6893 33.673
313 20.3714 0.202874 19.0023
314 18.8528 0.404086 18.847
315 18.2327 0.53295 20.2342
316 16.7449 0.781289 20.299
317 16.3591 1.23802 21.6912
318 14.8872 1.66454 21.6943
319 -0.557996 9.15907 0.0139674
320 0.157849 10.5211 0.289611
321 1.39075 10.8195 -0.620733
322 2.19572 11.894 0.0348887
323 3.65356 11.8636 -0.593864
324 4.45547 13.0486 0.0589473
325 -4.74483 14.1428 11.0117
326 -3.91259 15.398 11.0436
327 -4.09433 15.9317 12.4622
328 -3.21025 17.1464 12.7192
329 -3.20032 17.5299 14.2022
330 -2.06475 18.4941 14.4036
331 12.2248 7.65405 16.3204
332 11.6963 7.58701 17.7649
333 12.1665 6.30177 18.5058
334 11.2584 5.94947 19.7139
335 11.8443 4.73303 20.416
336 11.008 4.22386 21.6126
337 40.5543 25.6097 36.686
338 40.6523 24.4134 37.6888
339 42.1183 23.8411 37.7437
340 42.374 22.9004 38.9906
341 43.7881 22.2755 39.0021
342 43.9414 21.0366 39.8789
343 -2.26491 35.37 9.11397
344 -3.02553 36.6149 8.7881
345 -2.21494 37.8477 8.76863
346 -3.02637 39.1699 8.68744
347 -2.02813 40.3077 8.84403
348 -2.63913 41.721 8.91555
349 25.1488 26.1922 24.713
350 24.8789 26.9636 23.4475
351 23.389 26.8881 23.0556
352 23.1907 27.5114 21.669
353 21.8045 27.3631 21.0603
354 21.5757 28.0963 19.7114
355 19.2289 39.1488 47.8401
356 20.0969 39.1806 46.4902
357 19.2058 39.6956 45.4006
358 19.7242 39.668 43.9562
359 18.7296 40.5958 43.0926
360 18.8464 40.6277 41.5618
361 -1.95056 48.5099 -0.174085
362 -1.54063 47.4325 0.809189
363 -2.28198 46.1207 0.523156
364 -1.51331 45.0415 1.45764
365 -2.21765 43.6952 1.34729
366 -1.32791 42.8619 2.3522
367 -11.5918 17.416 54.8545
368 -10.3275 16.8368 55.6307
369 -9.30779 17.9543 55.6225
370 -7.88379 17.6012 56.1607
371 -6.82233 18.5351 56.0476
372 -6.86438 19.6111 57.166
373 3.70205 29.0957 35.3613
374 3.64877 30.4549 36.1026
375 2.75747 31.5471 35.5558
376 2.98338 32.9004 35.9684
377 1.94113 33.9435 35.7018
378 2.14941 35.2978 36.1115
379 39.8883 29.0026 31.3435
380 39.6033 30.0875 30.2769
381 38.2956 29.8146 29.5767
382 37.9912 30.9511 28.6444
383 36.6628 30.977 27.9069
384 35.3693 31.1084 28.6902
385 35.499 37.8686 22.4672
386 36.3015 36.573 22.2266
387 37.8499 36.7495 22.2712
388 38.6308 35.3968 22.2296
389 40.0754 35.4781 21.8516
390 40.8021 34.1469 21.9167
391 21.7531 33.29 16.7656
392 22.7465 34.0094 17.6952
393 24.1122 33.4178 17.9486
394 24.9179 34.2827 18.9313
395 26.2888 33.8152 19.2045
396 27.1972 34.7404 20.0266
397 14.7061 40.4165 18.3289
398 14.1979 39.1615 17.6692
399 13.9609 38.045 18.5938
400 13.1933 36.9259 17.885
401 13.0027 35.7412 18.8029
402 12.0493 34.7211 18.2317
403 8.41778 40.8076 38.4501
404 7.47126 40.233 37.3771
405 8.02571 39.5608 36.1249
406 7.00324 38.9912 35.0529
407 7.61497 38.2989 33.8497
408 6.57645 37.8144 32.804
409 21.2678 1.18851 14.3168
410 21.9358 2.56784 14.4673
411 22.142 3.37635 13.1726
412 21.9368 4.8716 13.4091
413 22.2548 5.70189 12.1423
414 22.0453 7.21332 12.3569
415 35.1109 7.80387 23.1712
416 34.7171 8.26056 21.765
417 35.2694 7.23769 20.7481
418 34.8472 7.51672 19.3334
419 35.1535 6.42281 18.3176
420 34.9534 6.93091 16.8979
421 18.8234 54.4813 47.6101
422 17.7768 53.3292 47.3665
423 18.2485 52.5747 46.0379
424 17.2288 51.5636 45.5429
425 17.6889 50.9111 44.2244
426 16.6152 50.0342 43.696
427 3.99915 19.1847 18.8218
428 4.02851 18.4964 17.4439
429 3.59008 17.02 17.5447
430 3.49023 16.1611 16.2587
431 3.01228 14.6994 16.409
432 2.95595 13.8456 15.1266
433 5.21357 45.6185 35.1146
434 5.22632 44.1484 35.5978
435 3.94647 43.3538 35.6413
436 3.97633 41.9317 36.1725
437 2.5627 41.3809 36.5564
438 2.68439 39.8906 36.6284
439 18.8646 6.68156 24.7478
440 17.7361 6.0504 23.9897
441 16.6182 5.75727 25.0179
442 15.4381 4.95371 24.3665
443 14.3871 4.57951 25.4831
444 13.3714 3.52642 25.065
445 4.29158 38.1066 45.7121
446 5.24367 38.9913 46.4666
447 4.66065 39.4479 47.8261
448 5.51934 40.2164 48.8219
449 4.69167 40.5735 50.152
450 5.62597 41.1384 51.2743
451 8.1282 16.8009 30.9591
452 8.98323 16.3561 29.8142
453 9.31822 17.5054 28.8642
454 10.2006 17.2865 27.6948
455 10.2794 18.5426 26.846
456 11.093 18.3843 25.6565
457 -9.77098 6.99272 27.084
458 -8.40709 6.57262 26.4712
459 -7.35913 6.29121 27.5586
460 -5.97352 6.06573 26.8973
461 -4.96483 5.66134 27.8622
462 -3.5526 5.52536 27.3259
463 1.64082 7.07741 27.0608
464 1.34987 7.40628 28.4667
465 2.57455 7.21463 29.2746
466 2.18394 7.32322 30.7634
467 3.42493 7.77273 31.6907
468 3.18332 7.2998 33.1256
469 28.3067 -2.40347 -10.0762
470 27.8063 -2.4249 -8.65727
471 28.6703 -3.38188 -7.80034
472 28.1068 -3.54988 -6.38141
473 29.0605 -4.28764 -5.46017
474 28.3857 -4.66765 -4.14599
475 28.1156 2.1397 26.0263
476 27.59 2.14209 24.6078
477 28.3214 3.1215 23.7227
478 27.6762 3.1655 22.3405
479 28.2722 4.08337 21.2838
480 27.35 4.08494 20.0464
481 21.4051 40.0864 3.58314
482 21.1814 39.8598 5.0067
483 22.4304 40.2032 5.89779
484 22.1966 39.6049 7.33577
485 23.4543 39.9104 8.106
486 23.3108 39.1332 9.44571
487 46.0143 -1.24294 29.2526
488 44.8369 -1.3134 28.3346
489 44 -2.5874 28.653
490 42.8879 -2.91399 27.6581
491 42.1412 -4.04328 28.0577
492 40.9145 -4.20103 27.0558
493 37.489 48.4835 14.9755
494 37.4671 47.2994 14.4386
495 38.8894 46.5007 14.4914
496 38.9145 45.0675 14.1677
497 40.0889 44.3809 14.3866
498 40.0088 42.8312 14.2347
499 0.233156 50.3417 31.9751
500 0.954231 49.4278 31.0604
501 1.97059 50.2301 30.3476
502 2.75338 49.4332 29.3346
503 1.95909 48.9564 28.1111
504 2.70544 48.049 27.1188
505 17.6184 13.7553 27.0566
506 17.9766 14.5532 28.313
507 17.5797 13.9911 29.6855
508 18.057 14.7574 30.9224
509 17.414 14.2536 32.2034
510 17.673 15.2112 33.3697
511 41.3512 31.8671 55.2675
512 40.7777 32.5155 54.004
513 40.0714 33.831 54.3836
514 39.9739 34.7805 53.2141
515 39.5552 36.1941 53.6467
516 39.1321 36.9885 52.3788
517 21.3159 -6.20693 16.2897
518 20.1221 -7.1176 16.0812
519 20.0424 -8.26124 17.0309
520 18.9591 -9.20217 16.5859
521 18.8624 -10.4981 17.4198
522 17.5484 -11.2371 17.1604
523 24.1587 20.0363 40.9328
524 24.5007 21.5227 40.8359
525 25.7369 21.8676 40.0143
526 26.1448 23.3559 39.9684
527 27.5327 23.59 39.3571
528 27.5942 25.0565 38.9589
529 13.442 16.3456 22.647
530 12.5639 15.1632 22.1734
531 11.1062 15.1963 22.6176
532 10.2975 14.0192 22.0176
533 8.83862 14.0122 22.3833
534 8.06313 12.7205 22.3621
535 26.255 -6.74989 22.8115
536 27.0392 -7.99599 23.1832
537 26.148 -9.24406 23.1473
538 26.892 -10.4555 23.4831
539 26.1448 -11.7385 23.9088
540 27.0892 -12.9534 24.1963
541 40.646 18.2119 42.5906
542 39.5504 18.452 41.4597
543 39.3031 19.984 41.2016
544 38.1475 20.2533 40.1818
545 37.7673 21.8171 40.1623
546 36.6945 22.0182 39.0588
547 15.8107 30.7318 18.7503
548 16.5039 30.0857 17.5743
549 18.0134 30.3794 17.4458
550 18.7053 29.6228 16.3162
551 20.1877 29.7108 16.4068
552 20.8223 28.8719 15.2716
553 40.7788 -20.1742 22.7903
554 39.4359 -19.5877 23.123
555 39.3529 -18.0404 23.2055
556 38.0082 -17.5075 23.6552
557 37.856 -16.0343 23.5622
558 36.5993 -15.4558 24.2024
559 12.2064 -5.89152 28.4553
560 13.1569 -4.74272 29.1324
561 14.1617 -4.20719 28.1216
562 15.1084 -3.17715 28.749
563 16.2265 -2.58636 27.8514
564 17.0422 -1.51031 28.5412
565 27.3799 1.22436 30.0457
566 26.5398 0.391276 30.9384
567 26.7871 0.881491 32.4438
568 25.8863 0.0609569 33.3788
569 26.2047 0.328568 34.942
570 25.1842 -0.144154 35.9096
571 4.55155 45.4363 29.3368
572 5.96623 45.1605 29.6408
573 6.80997 45.5503 28.4052
574 8.3718 45.6332 28.7902
575 9.29556 46.114 27.6915
576 9.13706 47.5711 27.2876
577 -3.7315 18.8376 28.2574
578 -4.48586 18.4899 29.565
579 -5.49043 17.4249 29.3132
580 -6.48004 17.5069 30.4214
581 -7.47291 16.3608 30.3983
582 -8.31191 16.3693 31.6249
583 34.3446 30.4436 5.89178
584 35.9204 30.4447 5.87891
585 36.3534 30.1697 4.48831
586 37.871 30.3099 4.25127
587 38.2066 29.7059 2.97049
588 39.7267 29.5416 2.98948
589 31.2384 27.514 -10.6151
590 32.359 27.3831 -9.53735
591 32.0742 28.3465 -8.39793
592 33.179 28.5089 -7.38605
593 32.7825 29.5645 -6.37534
594 33.7015 29.7065 -5.15398
595 33.8565 21.9406 48.4211
596 32.5014 22.1687 49.0111
597 32.0302 20.888 49.7768
598 30.7423 21.2155 50.4071
599 30.0619 20.0402 51.1411
600 28.8018 20.5446 51.9979
601 24.6122 20.1704 44.9453
602 25.4929 19.1084 44.2924
603 24.7914 17.8784 43.7866
604 25.785 16.9631 43.0595
605 25.2159 15.6128 42.4312
606 26.2349 14.9252 41.5685
607 9.33498 25.0117 3.8995
608 9.83752 25.5218 2.63945
609 10.4842 24.4681 1.79293
610 11.3806 25.0447 0.606612
611 11.8961 24.0479 -0.322397
612 12.9844 24.6099 -1.21482
613 28.7811 7.81375 31.4625
614 28.704 7.63384 29.9868
615 28.2158 8.8594 29.1852
616 28.1943 8.61614 27.6276
617 27.4819 9.73283 26.8461
618 27.6509 9.70763 25.4232
619 28.9855 -6.88922 36.9719
620 29.8664 -5.81034 36.3747
621 29.2217 -5.05271 35.2017
622 30.1348 -4.10298 34.449
623 29.3319 -3.24532 33.504
624 30.2391 -2.3095 32.7814
625 47.6052 3.78893 26.1643
626 46.6385 3.22523 25.0704
627 46.1202 1.79793 25.4913
628 45.2819 1.1375 24.4137
629 44.749 -0.252777 24.7523
630 44.0823 -0.871227 23.451
631 47.1775 14.445 23.0657
632 46.4095 14.2334 21.762
633 45.2966 13.1517 21.9075
634 44.7852 12.7381 20.538
635 43.6394 11.7236 20.4675
636 43.4476 11.2211 19.0368
637 45.9671 20.2856 23.2708
638 44.8043 19.8993 22.3085
639 44.4799 18.4202 22.3501
640 43.4103 18.0264 21.3165
641 42.9912 16.5929 21.4435
642 42.1126 16.0223 20.3283
643 48.1674 8.0543 19.2007
644 47.9135 9.53644 19.3025
645 47.5547 10.143 17.9409
646 47.4841 11.6327 18.0785
647 47.1204 12.4181 16.8334
648 46.9271 13.9367 17.081
649 31.0051 32.2149 17.3295
650 29.5244 32.0925 17.6605
651 29.0584 30.6164 17.8565
652 27.6475 30.5264 18.293
653 27.1427 29.0981 18.3803
654 25.8841 28.9599 19.2271
655 38.7338 40.7525 25.7433
656 39.2597 39.3442 25.353
657 40.7844 39.3685 25.2187
658 41.3448 38.0627 25.0964
659 42.8847 37.9306 25.0026
660 43.1725 36.4386 24.8026
661 15.8754 15.8529 16.0412
662 14.9491 15.3395 14.9208
663 15.5684 15.5656 13.5713
664 14.5983 15.5625 12.3945
665 15.2048 15.5969 11.0139
666 14.1162 15.4937 9.92551
667 34.5574 48.0184 2.55837
668 33.3355 48.178 3.50267
669 32.7551 46.7282 3.92151
670 31.6433 46.9051 4.94921
671 31.139 45.5465 5.45136
672 30.1051 45.7511 6.67052
673 2.18888 28.5857 10.5418
674 2.54044 27.7254 9.25822
675 1.68798 28.1617 8.08417
676 2.06198 27.2305 6.84489
677 1.15704 27.4145 5.58434
678 1.70243 26.4692 4.50597
679 11.1508 30.7832 18.0176
680 11.889 29.4205 18.1581
681 12.8303 29.0086 16.9997
682 13.171 27.5086 17.0264
683 14.1757 27.0627 15.9949
684 14.2631 25.5644 15.9909
685 26.1276 38.3754 19.1732
686 27.206 39.3507 18.8747
687 26.644 40.7154 18.4012
688 27.7067 41.8706 18.2047
689 27.1274 43.1117 17.5991
690 28.0955 44.2665 17.3698
691 31.9534 39.4358 -1.25251
692 32.7556 40.0327 -2.48955
693 31.8136 40.3041 -3.62537
694 32.4577 40.778 -4.99478
695 31.3319 40.9519 -6.12325
696 31.972 41.593 -7.35795
697 11.5541 38.6994 4.97112
698 10.3105 38.7917 4.07759
699 10.5826 38.0358 2.8045
700 9.37896 38.0262 1.93178
701 9.29636 36.9368 0.791893
702 7.86356 36.5353 0.353135
703 18.5358 15.1981 37.7778
704 18.0701 14.1256 38.745
705 19.2391 13.245 39.2902
706 19.0526 12.8279 40.76
707 20.2058 11.8971 41.0561
708 20.2177 11.4218 42.4979
709 26.4978 18.075 29.2317
710 27.0059 16.7545 29.8707
711 25.9015 16.3453 30.8667
712 26.2753 15.1944 31.7618
713 25.3064 15.0248 32.9431
714 25.5166 13.6907 33.5757
715 14.4008 9.45666 29.6717
716 13.7254 10.795 30.1153
717 12.2191 10.6576 30.3746
718 11.5675 11.9279 30.8433
719 10.094 11.6081 30.9765
720 9.19323 12.7518 31.3786
721 32.7367 27.5081 13.2021
722 32.0344 26.5524 12.2489
723 31.1493 25.5516 12.9754
724 30.2094 24.9439 11.9824
725 29.2659 23.8458 12.5448
726 28.2684 23.2927 11.5336
727 4.2563 41.9548 31.0849
728 5.27927 41.6698 29.9657
729 6.17767 40.4649 30.2358
730 7.32143 40.3227 29.2401
731 8.20236 39.1227 29.5488
732 9.48653 39.0116 28.6983
733 21.452 24.4823 15.6588
734 22.186 24.9204 16.8964
735 23.406 24.0709 17.2288
736 24.2088 24.8038 18.2167
737 25.4314 24.0826 18.7349
738 26.2169 25.0554 19.6307
739 9.40445 14.969 34.3231
740 9.43422 14.5481 35.7751
741 9.46989 15.8795 36.6309
742 9.52017 15.5825 38.0965
743 9.8474 16.9218 38.8833
744 9.86767 16.5516 40.3851
745 -6.48205 23.7572 56.9454
746 -5.23062 23.14 56.4538
747 -4.76476 23.8621 55.2138
748 -3.39776 23.3458 54.6449
749 -2.88014 24.1309 53.4463
750 -1.46123 23.6629 53.1797
751 3.30105 25.4762 22.7176
752 3.24251 24.1493 23.4642
753 3.46551 22.9604 22.5634
754 2.66766 21.7685 23.1065
755 3.09261 20.4667 22.4358
756 1.94962 19.4787 22.6641
757 0.33325 -7.8436 19.3325
758 -0.931945 -7.73454 20.1309
759 -2.1383 -8.25737 19.3111
760 -3.44559 -8.61753 20.1564
761 -4.20347 -7.50154 20.8067
762 -5.51448 -7.749 21.3547
763 3.288 19.4084 42.9777
764 4.22994 18.258 43.398
765 5.03653 17.5415 42.3582
766 5.85618 16.437 42.9523
767 6.50584 15.5024 41.9115
768 7.2851 14.2798 42.5629
769 -10.2197 -1.08258 23.1353
770 -10.2286 0.312424 23.7975
771 -11.5003 1.159 23.8375
772 -11.3125 2.6205 24.0258
773 -12.7158 3.21763 24.3437
774 -12.7536 4.7056 24.7526
775 5.82061 13.2683 38.0737
776 6.30845 12.0102 38.7923
777 7.71043 12.1836 39.3212
778 8.29185 10.955 39.9249
779 9.72035 11.1554 40.4683
780 10.2069 9.86427 41.132
781 14.8928 57.0707 5.35357
782 14.7164 56.9568 6.86372
783 14.0702 58.1598 7.56185
784 14.1777 58.1103 9.1475
785 13.4776 59.3087 9.85016
786 13.6054 59.2929 11.3838
787 0.608633 6.44866 11.4915
788 -0.834011 6.63261 10.9389
789 -1.87523 6.45401 11.9699
790 -3.32243 6.37864 11.4694
791 -4.26497 5.91083 12.5741
792 -5.6167 5.61028 11.9691
793 16.1132 6.04558 4.1061
794 16.1336 5.00229 5.18369
795 14.829 4.36957 5.63104
796 14.886 3.29981 6.75771
797 13.5868 2.76202 7.31554
798 13.788 1.69193 8.37103
799 0.849258 13.0771 -12.6361
800 -0.457603 12.9216 -11.8301
801 -0.266918 13.1435 -10.2923
802 -1.57636 13.1735 -9.43484
803 -2.44725 11.8002 -9.40188
804 -3.56576 11.8731 -8.37221
805 8.86736 0.203671 19.4435
806 10.1328 -0.0907809 20.0824
807 10.145 0.405177 21.5855
808 11.4022 -0.0658759 22.3464
809 11.5322 0.5599 23.7609
810 12.5704 -0.0169652 24.6184
811 40.779 21.0536 49.149
812 41.2413 19.9111 48.4442
813 42.818 19.8842 48.4563
814 43.5213 18.61 47.7812
815 45.1303 18.6336 47.6396
816 45.5941 17.3781 46.9995
817 11.9074 47.6625 12.4109
818 11.0199 47.2999 13.5951
819 10.6306 45.7964 13.6161
820 9.82506 45.5214 14.8202
821 9.18954 44.0862 14.6666
822 8.23576 43.7723 15.7894
823 33.6836 9.0364 42.102
824 33.7738 8.97455 40.6188
825 32.8617 10.0336 39.8896
826 32.887 10.2069 38.3799
827 31.8336 11.1565 38.0817
828 31.6966 11.5842 36.6267
829 29.1552 40.7195 2.19338
830 28.6046 41.8786 1.34293
831 29.2928 43.1977 1.67122
832 28.7863 44.313 0.824062
833 29.3339 45.6782 1.22728
834 28.8215 46.8204 0.383376
835 28.9565 2.8061 0.892015
836 28.0097 3.91057 0.815837
837 28.5463 5.16016 0.166865
838 27.6317 6.37081 0.165698
839 28.1374 7.57171 -0.686768
840 27.059 8.5919 -0.726655
841 31.7647 24.1614 8.22105
842 30.6204 24.4905 7.23879
843 29.2889 23.8627 7.68166
844 28.1694 23.6258 6.60646
845 26.8501 23.2282 7.28282
846 25.6115 23.1588 6.33833
847 52.308 6.51378 18.3089
848 50.9831 5.75382 18.429
849 50.9822 4.28674 18.2799
850 49.7183 3.50069 18.3512
851 49.7847 2.0612 18.0894
852 48.6509 1.22858 18.4311
853 43.4605 33.8945 12.7113
854 43.0189 34.0244 14.1641
855 41.5608 33.7548 14.5353
856 41.1648 33.9799 15.8502
857 39.8023 33.458 16.2796
858 39.5226 33.6367 17.7011
859 37.1663 15.8729 22.0209
860 37.8617 17.2457 21.8659
861 38.7593 17.5201 23.0401
862 39.5717 18.8188 22.9647
863 40.462 18.9486 24.2213
864 41.4729 20.0793 24.0917
865 45.722 36.0596 36.7814
866 46.5418 37.2839 37.1821
867 46.3807 38.4799 36.2275
868 47.4057 38.2489 34.9753
869 47.5603 39.5578 34.1023
870 48.764 39.4284 33.1721
871 18.8654 2.91412 -19.2883
872 19.1638 2.78064 -20.7947
873 18.5748 1.50785 -21.4331
874 19.2705 1.37026 -22.7891
875 19.6494 -0.0378015 -23.1673
876 20.5627 0.00888115 -24.4707
877 10.7981 -0.264272 -16.1985
878 11.1738 0.289805 -14.8115
879 11.7734 1.69677 -14.8695
880 12.3298 2.24234 -13.4634
881 13.2377 3.42825 -13.6592
882 13.3118 4.33962 -12.4505
883 13.2765 -8.91523 9.15616
884 12.4197 -8.44232 10.2834
885 13.2568 -7.623 11.395
886 12.5887 -7.10915 12.5573
887 13.604 -6.44606 13.4732
888 12.9895 -5.52117 14.5703
889 -8.35949 1.4443 36.2847
890 -7.08982 2.29099 36.4923
891 -6.71911 2.38825 37.9729
892 -5.58064 3.38942 38.2518
893 -5.16021 3.44129 39.7508
894 -3.97746 4.31155 40.2351
895 -3.05154 -14.4239 27.3913
896 -2.20917 -13.2049 27.3075
897 -0.747133 -13.3781 27.2485
898 0.0985762 -12.1227 27.463
899 1.53775 -12.1419 27.2474
900 2.33517 -10.8474 27.4253
901 31.6665 -6.07068 7.96316
902 32.7778 -5.34367 7.30343
903 34.1781 -5.39505 7.95351
904 35.2531 -4.95802 6.94043
905 36.5578 -4.58591 7.72542
906 37.4919 -3.94077 6.70986
907 34.7164 23.1838 4.92696
908 33.3301 23.5862 4.42928
909 33.2767 25.0784 3.86627
910 31.8849 25.3786 3.35591
911 31.8935 26.9076 3.13087
912 30.6393 27.4187 2.40095
913 41.1955 1.71123 12.0126
914 40.4249 1.82573 10.7842
915 39.5178 0.607718 10.7855
916 38.5943 0.543967 9.40618
917 37.6812 -0.668954 9.47989
918 36.4739 -0.477306 8.51817
919 48.3388 16.4322 12.0956
920 49.2519 16.8203 10.9221
921 50.5942 16.1096 10.9065
922 51.4633 16.5327 9.72971
923 52.8782 15.9717 9.75951
924 53.7735 16.3161 8.56272
925 29.8248 15.0561 37.0734
926 30.1481 15.9861 35.9451
927 28.8557 16.6848 35.4169
928 29.0913 17.7379 34.3099
929 27.9835 18.7902 34.1898
930 28.3856 19.8227 33.1514
931 32.4301 -2.50355 -6.83937
932 33.6843 -2.04138 -6.27888
933 34.7352 -2.95027 -5.96292
934 35.9247 -2.4517 -5.09354
935 36.6914 -3.62457 -4.51707
936 37.9418 -3.14203 -3.83339
937 46.6655 25.7865 -3.0131
938 48.0023 25.1738 -2.80238
939 48.3308 25.1188 -1.36459
940 49.7452 24.7192 -1.09827
941 49.7391 24.2466 0.372447
942 51.1138 24.0696 1.02575
943 28.4042 0.913902 8.85106
944 29.9182 1.1456 8.99401
945 30.5071 0.163251 10.0352
946 31.9829 0.560187 10.2179
947 32.6524 -0.0826982 11.4104
948 34.1581 0.241302 11.7057
949 -5.33822 9.59045 7.96014
950 -3.97773 9.22322 8.49159
951 -3.41935 10.4446 9.35618
952 -2.21061 10.2333 10.303
953 -1.79621 11.4487 11.055
954 -0.661104 11.2608 12.1604
955 15.8534 6.7946 10.5599
956 16.3365 7.97955 11.3926
957 15.6089 7.93606 12.7405
958 16.0418 9.04097 13.6683
959 15.4923 8.95056 15.094
960 15.8356 10.1993 15.824
961 24.3607 27.2245 11.0477
962 25.6085 26.6689 10.4213
963 26.7796 27.7082 10.3594
964 28.0858 27.0625 9.93558
965 29.01 28.1877 9.55104
966 30.4423 27.8705 9.16805
967 21.146 -2.03563 12.312
968 20.8183 -1.85267 10.8168
969 20.8628 -3.10736 10.0743
970 20.7351 -2.82649 8.61919
971 20.6332 -4.1841 7.90526
972 20.2752 -4.29586 6.47555
973 29.8649 28.1815 30.9174
974 30.3913 26.7627 31.0397
975 29.3901 25.7946 30.4927
976 29.8943 24.3642 30.5931
977 29.1157 23.3511 29.6274
978 29.6278 21.89 29.6345
979 -8.52918 25.5396 11.6026
980 -7.95802 24.8172 12.7785
981 -7.99261 23.26 12.672
982 -7.03239 22.4306 13.6449
983 -7.23968 20.9423 13.5245
984 -6.53735 20.219 14.7139
985 20.3318 13.5728 23.7254
986 20.1804 14.3219 22.4322
987 18.8863 15.0894 22.4867
988 18.2668 15.4659 21.1269
989 17.0647 16.3365 21.4155
990 16.2479 16.6466 20.1386
991 13.7405 13.4256 26.8785
992 12.9645 13.0697 25.5791
993 13.4025 11.6685 25.1772
994 12.6458 11.073 23.9635
995 13.4339 9.9967 23.271
996 12.6851 9.15463 22.2473
997 28.0416 33.1054 6.71686
998 28.731 34.3911 7.22175
999 29.6307 35.0818 6.14793
1000 30.2314 36.3938 6.67768
1001 30.8261 37.213 5.57183
1002 31.5248 38.4602 6.0644
1003 -33.0744 30.6753 26.995
1004 -33.9083 31.4062 28.0117
1005 -34.8763 32.264 27.2218
1006 -36.0492 32.7785 27.9811
1007 -36.7878 33.8813 27.2898
1008 -37.6929 34.5837 28.2803
1009 -4.97004 24.3002 22.3165
1010 -5.63005 24.3049 23.6839
1011 -4.99325 23.3575 24.7329
1012 -3.57688 23.6762 25.1216
1013 -2.90463 22.7136 26.088
1014 -1.66914 23.2675 26.825
1015 -4.62801 29.1701 14.3996
1016 -5.26265 29.8586 15.5728
1017 -4.4091 29.5759 16.821
1018 -4.73239 30.4765 18.0756
1019 -4.12036 29.924 19.3305
1020 -4.26063 30.8732 20.4865
1021 3.10362 18.3721 31.2682
1022 2.61815 18.7977 32.6659
1023 1.47477 17.8836 33.1663
1024 1.0707 18.1967 34.5931
1025 -0.17944 17.2695 35.0394
1026 -0.773314 17.6427 36.4813
1027 6.07183 30.3764 9.17567
1028 5.829 29.2494 8.23719
1029 5.99166 29.6339 6.78026
1030 5.69885 28.6366 5.67935
1031 5.80654 29.2549 4.30041
1032 5.26901 28.3112 3.18816
1033 -3.86518 42.3268 31.2598
1034 -5.12952 42.9976 31.6614
1035 -6.04567 42.091 32.4243
1036 -7.39752 42.7053 32.6212
1037 -8.40169 41.6867 33.1813
1038 -9.74922 42.3318 33.57
1039 -5.53498 33.8794 41.5338
1040 -4.17482 33.3915 40.9381
1041 -3.14797 34.4903 40.7473
1042 -1.80477 33.9286 40.4523
1043 -0.805235 34.9489 40.2183
1044 0.405369 34.4704 39.5304
1045 26.9102 -8.61549 -3.8009
1046 27.4314 -8.75431 -2.29402
1047 28.3038 -10.0914 -2.26895
1048 28.5371 -10.1878 -0.804679
1049 29.3671 -11.3215 -0.495944
1050 29.7682 -11.3268 1.00158
1051 18.1893 27.8167 22.8068
1052 18.179 26.4926 22.0383
1053 17.9566 26.6988 20.5272
1054 18.1019 25.3999 19.7103
1055 17.4303 25.5597 18.3295
1056 17.7488 24.4188 17.4151
1057 19.5612 25.7801 1.50395
1058 19.9488 26.5553 2.74657