ITEM: TIMESTEP
0
ITEM: NUMBER OF ATOMS
3000
ITEM: BOX BOUNDS pp pp pp
0.0000000000000000e+00 4.4720700000000001e+01
0.0000000000000000e+00 4.4720700000000001e+01
0.0000000000000000e+00 4.4720700000000001e+01
ITEM: ATOMS id xu yu zu
1 26.3482 0.2643 33.1546
2 27.6727 -0.1938 32.551
3 27.4858 -0.8424 31.1824
4 26.0548 -0.6252 30.6991
5 25.5687 0.7817 31.0356
6 24.9713 1.4326 29.7914
7 27.5599 6.4313 25.1201
8 28.388 7.1839 26.1576
9 28.9522 8.4893 25.6043
10 29.5545 9.3136 26.7385
11 29.0371 10.7489 26.7096
12 30.0971 11.691 27.2731
13 27.6061 3.8331 30.9618
14 26.95 4.7972 31.9459
15 26.0839 5.8365 31.24
16 25.1381 5.1433 30.2635
17 25.5307 5.4344 28.8178
18 25.6099 4.1289 28.0317
19 6.0235 40.8675 11.6724
20 5.8193 40.3163 10.2642
21 4.7359 39.2425 10.2199
22 5.3084 37.9112 10.6979
23 4.4159 37.2797 11.7625
24 3.1128 36.8034 11.1272
25 11.3136 36.0518 15.5985
26 12.4345 35.444 16.4368
27 11.9438 34.991 17.8089
28 10.4286 34.8113 17.782
29 9.7213 36.0177 18.393
30 9.8689 37.2242 17.4704
31 12.9547 40.3213 17.0259
32 11.4528 40.5586 16.8972
33 10.9532 40.3156 15.4759
34 9.5058 39.8336 15.5126
35 8.5989 40.8673 16.1741
36 7.1951 40.7761 15.5827
37 33.3811 7.3103 39.2196
38 31.9565 6.7803 39.0847
39 31.4958 6.7365 37.6306
40 31.5346 8.1406 37.0341
41 31.0788 8.1318 35.5778
42 32.2681 8.4104 34.6631
43 31.9446 38.1846 22.3764
44 31.3122 36.7966 22.4219
45 32.2725 35.7464 22.9731
46 32.8924 34.9588 21.8225
47 31.8584 34.0577 21.1534
48 30.6834 33.8292 22.0999
49 24.6137 42.871 17.3174
50 25.212 42.3872 18.6352
51 24.1397 42.1126 19.6856
52 24.3696 43.003 20.9034
53 23.0525 43.3318 21.6003
54 22.8738 42.4297 22.8181
55 31.937 41.5458 20.9718
56 32.1345 40.3652 21.9184
57 33.6061 39.9902 22.0686
58 34.4269 41.2368 22.3863
59 35.1241 41.7687 21.1375
60 35.4325 40.6149 20.1876
61 24.3672 20.3196 9.2725
62 23.9977 19.8708 10.6834
63 22.9805 18.7333 10.6758
64 22.1125 18.8082 11.9286
65 20.6299 18.7316 11.5753
66 20.0564 17.3968 12.0422
67 16.5884 38.5831 27.207
68 16.9844 37.1126 27.1091
69 15.8203 36.1819 27.4363
70 15.0226 36.7452 28.6089
71 14.382 35.6266 29.4257
72 14.8937 35.6785 30.8624
73 31.9333 -3.0714 -1.8407
74 31.3094 -2.7007 -3.1831
75 31.8258 -3.5802 -4.3182
76 30.6792 -3.9316 -5.2618
77 30.1462 -5.3336 -4.9807
78 28.8544 -5.5606 -5.7606
79 18.4982 44.2774 28.717
80 19.9919 44.0206 28.8943
81 20.3178 42.5302 28.9288
82 20.5025 42.0752 30.3736
83 21.7848 42.6481 30.9705
84 21.6312 44.1524 31.1761
85 20.218 36.4029 20.9438
86 21.1581 37.3654 21.664
87 20.476 38.6876 22.0031
88 19.277 38.4321 22.9118
89 18.2574 37.5218 22.2332
90 18.0657 36.2542 23.0609
91 17.321 40.2271 20.9635
92 16.8302 38.7965 20.7614
93 15.6421 38.4652 21.66
94 14.8289 39.7284 21.9276
95 15.441 40.9356 21.2228
96 15.7038 40.5993 19.7577
97 17.6621 40.7866 25.9952
98 17.6163 41.1165 24.506
99 17.0273 39.9742 23.6832
100 15.8477 39.3559 24.4281
101 15.5483 37.9508 23.9134
102 15.4431 36.9825 25.0881
103 28.28 3.3316 -0.307
104 28.6974 2.2709 0.7076
105 29.8722 2.7297 1.5667
106 30.9874 3.265 0.6732
107 31.7911 4.3483 1.3869
108 31.0875 4.7442 2.6818
109 43.9214 40.0517 30.642
110 42.6001 39.4289 30.2004
111 42.362 38.0684 30.8491
112 43.3971 37.8303 31.9448
113 43.881 36.3831 31.9385
114 43.1762 35.608 30.8289
115 39.9877 40.5602 33.9654
116 39.672 39.4283 32.9918
117 40.9324 38.7086 32.5205
118 40.6732 37.2065 32.4489
119 40.5233 36.6075 33.8444
120 41.9012 36.3878 34.4623
121 40.3582 41.3116 27.459
122 41.0313 40.2234 28.2906
123 40.1852 38.9559 28.3696
124 39.0897 39.1307 29.4175
125 39.567 38.674 30.793
126 39.4823 37.1534 30.89
127 33.3488 16.421 21.1444
128 33.7534 17.5977 20.261
129 34.1244 17.154 18.8489
130 33.7475 15.6884 18.6522
131 32.2576 15.5389 18.3581
132 31.6043 14.672 19.4306
133 19.2696 -3.3437 2.7057
134 19.1293 -2.0835 3.5548
135 19.1719 -0.8141 2.7091
136 17.9915 0.0845 3.0665
137 17.1281 -0.549 4.1537
138 17.9934 -1.4253 5.0547
139 42.3262 0.3611 7.4385
140 43.2711 -0.8205 7.2394
141 43.0197 -1.5398 5.9173
142 42.9796 -0.5261 4.7773
143 42.9766 -1.2247 3.4206
144 43.2637 -2.712 3.6053
145 39.9099 -2.1095 11.3154
146 38.9621 -1.6473 12.4185
147 37.8526 -2.6609 12.6836
148 37.4232 -2.5859 14.146
149 36.2927 -1.5787 14.3359
150 35.765 -1.1326 12.9753
151 11.7174 -5.5336 44.0352
152 13.0682 -4.9095 43.6968
153 13.1096 -4.3701 42.2699
154 14.3561 -4.8879 41.558
155 14.5603 -4.1793 40.222
156 15.2586 -5.1174 39.2417
157 6.6663 -5.5672 39.6434
158 7.606 -4.9391 38.6182
159 8.7191 -4.1312 39.2794
160 9.0511 -4.7294 40.6434
161 9.2782 -6.2351 40.5426
162 7.9576 -6.9712 40.7491
163 3.3391 -3.0489 37.0977
164 4.3627 -2.0833 37.6882
165 5.7582 -2.303 37.111
166 6.3246 -3.626 37.6184
167 6.176 -4.7253 36.5705
168 6.926 -4.3329 35.3008
169 5.1192 34.5311 17.7618
170 6.0458 33.5643 17.03
171 7.3172 33.2767 17.8234
172 7.4119 34.2305 19.0107
173 6.53 33.7613 20.1643
174 6.2157 32.2768 20.0028
175 8.1512 -1.7025 40.3028
176 7.8913 -0.4938 41.1973
177 8.435 0.7965 40.5906
178 9.6555 0.4875 39.7282
179 10.0758 1.7076 38.9136
180 10.4252 2.8592 39.8519
181 -0.2301 14.3525 9.4211
182 -0.4289 15.1748 8.1512
183 -1.4487 14.5398 7.2102
184 -0.7255 13.7859 6.0978
185 0.3422 14.6597 5.4458
186 -0.1901 15.2343 4.1362
187 -3.0221 15.686 16.8521
188 -2.6715 16.3705 15.5341
189 -3.9105 16.6664 14.6939
190 -5.0669 15.781 15.1492
191 -4.9477 14.3769 14.5634
192 -4.7161 14.464 13.0576
193 2.4264 14.6617 14.8686
194 3.2757 15.3894 13.8304
195 2.984 14.909 12.4117
196 3.0399 13.3849 12.3608
197 1.6388 12.7818 12.4028
198 1.3933 11.9582 11.1418
199 27.6658 31.7498 16.3912
200 27.0478 31.2622 15.0839
201 28.093 31.0845 13.9864
202 27.9063 32.1568 12.9168
203 28.0587 33.5553 13.5083
204 28.354 33.4545 15.002
205 26.8859 21.363 21.8268
206 26.4872 22.6648 21.1375
207 27.6806 23.593 20.9299
208 27.4411 24.9126 21.6578
209 27.6945 26.1023 20.7362
210 28.1137 25.6056 19.3556
211 27.234 27.6912 13.1104
212 26.7228 29.051 12.6433
213 25.24 29.2424 12.9487
214 25.0526 30.4503 13.8623
215 24.3853 31.6036 13.1185
216 25.3039 32.8222 13.1252
217 23.4889 23.9978 14.7855
218 24.7453 24.0857 13.9239
219 24.9168 22.8588 13.0328
220 26.2343 22.1623 13.3609
221 27.1918 23.1083 14.0799
222 28.3551 23.4638 13.1585
223 35.9297 24.0833 28.2573
224 35.2521 24.6778 27.0259
225 35.3107 26.2027 27.0189
226 35.0893 26.7214 25.6009
227 36.3677 26.6218 24.7735
228 36.0307 26.1687 23.3558
229 19.8805 6.9396 7.8248
230 18.4947 7.45 7.4406
231 17.5069 6.3099 7.21
232 17.1677 6.2128 5.7254
233 18.23 6.9008 4.8729
234 17.6555 7.2285 3.4977
235 38.3166 5.159 11.5871
236 38.748 4.308 10.3962
237 39.9365 3.4116 10.732
238 41.2229 4.0402 10.204
239 42.4327 3.1669 10.5239
240 43.5895 3.528 9.5965
241 45.3983 8.3317 13.511
242 44.3245 7.5631 14.2758
243 42.9879 7.5587 13.5395
244 42.0617 8.6101 14.1441
245 42.7426 9.3459 15.2946
246 43.4785 10.5712 14.76
247 7.563 -2.7966 5.4708
248 7.9364 -2.4492 4.0325
249 6.8864 -2.9301 3.035
250 7.1794 -2.3471 1.6555
251 8.2792 -3.134 0.9486
252 9.5606 -3.0872 1.7759
253 5.2312 -5.4821 1.1598
254 4.3991 -4.2623 1.5448
255 2.9092 -4.5841 1.6182
256 2.1021 -3.4307 1.0292
257 2.3556 -2.1352 1.7948
258 3.8575 -1.9052 1.9369
259 38.9408 3.0055 13.4561
260 39.2529 4.3063 14.1904
261 38.778 5.5314 13.4144
262 38.4136 6.6495 14.3869
263 37.3116 7.5372 13.8157
264 36.0171 7.3179 14.5935
265 3.3636 3.4883 5.1837
266 2.2762 4.417 5.7165
267 1.0436 4.4326 4.8169
268 0.3156 3.0951 4.9151
269 0.5098 2.4634 6.2906
270 0.4367 3.5412 7.3684
271 0.5314 1.0836 3.8695
272 0.1556 2.3772 3.1526
273 1.3848 3.1643 2.7072
274 1.6452 2.9194 1.2237
275 0.5726 3.5787 0.3613
276 0.027 2.5694 -0.6449
277 30.5891 24.3881 29.7313
278 29.9601 23.0201 29.98
279 28.6025 22.8802 29.2975
280 27.5247 22.607 30.3427
281 26.176 23.1677 29.9009
282 26.3615 24.0459 28.6668
283 33.2735 18.3595 32.1875
284 34.3345 18.5651 31.1102
285 35.6567 19.0556 31.6932
286 36.4296 17.879 32.2822
287 37.9126 18.2104 32.4219
288 38.2181 19.5221 31.7043
289 32.5751 15.5323 31.7725
290 32.2806 15.4105 30.2802
291 32.5174 16.7236 29.5396
292 31.2215 17.1848 28.8788
293 30.3459 15.995 28.4965
294 29.2514 15.8026 29.5423
295 33.2547 24.2599 32.6763
296 32.0979 24.4522 31.6998
297 31.0323 25.3951 32.2512
298 29.7164 25.1773 31.5098
299 29.0132 26.5039 31.2371
300 28.4942 27.0916 32.5463
301 12.6751 5.2979 4.889
302 11.8901 4.3692 3.967
303 10.5626 3.937 4.5831
304 9.8051 5.1613 5.089
305 9.7307 6.2437 4.0159
306 9.4793 5.6035 2.6537
307 30.3372 18.4841 31.2005
308 29.4883 19.0853 32.317
309 30.3437 19.6481 33.4485
310 31.8219 19.4429 33.1296
311 32.5006 18.588 34.1959
312 32.194 17.1138 33.9476
313 3.651 -1.6633 11.2873
314 4.1968 -0.2462 11.1371
315 3.4606 0.7497 12.0286
316 4.0468 2.1456 11.8374
317 5.5286 2.1739 12.2011
318 6.3237 2.8305 11.0762
319 4.3973 -1.648 7.2951
320 3.4956 -1.947 6.1009
321 4.2648 -2.5821 4.946
322 5.513 -1.7586 4.6421
323 5.495 -0.4336 5.3989
324 6.822 -0.2366 6.1261
325 8.8983 21.8451 24.646
326 9.2848 23.0629 23.8116
327 8.3354 23.2782 22.6365
328 8.8468 22.5215 21.414
329 7.7421 21.6726 20.7913
330 6.3785 22.1903 21.2399
331 14.3551 2.3786 13.4833
332 14.489 1.4394 12.288
333 13.4159 0.3545 12.2877
334 12.0327 0.9963 12.2298
335 12.1343 2.5184 12.1898
336 13.4297 2.9311 11.4969
337 38.1755 19.6344 41.2595
338 39.2098 18.8306 42.0424
339 38.6792 17.4607 42.4552
340 38.465 17.4236 43.9657
341 37.0536 17.8734 44.3318
342 36.9053 19.3699 44.0724
343 -2.2301 31.8833 -1.4951
344 -2.1112 33.3307 -1.0264
345 -3.4317 34.0851 -1.1531
346 -3.4181 34.9414 -2.4161
347 -4.067 36.2997 -2.1661
348 -3.8645 36.7082 -0.7097
349 37.0495 28.8462 37.8038
350 35.6252 28.3963 38.1162
351 34.6535 29.5712 38.1806
352 34.814 30.4429 36.9384
353 34.2527 31.8424 37.1729
354 32.8439 31.7432 37.7509
355 28.901 33.0462 40.8733
356 29.6114 33.6636 39.6721
357 30.6259 34.7247 40.0886
358 30.0582 35.5617 41.2313
359 29.972 34.7473 42.5189
360 31.3756 34.4748 43.0522
361 -1.789 30.9873 18.1571
362 -1.1949 32.2293 17.4991
363 -2.1823 32.9047 16.5517
364 -1.7231 32.7181 15.1084
365 -2.9066 32.435 14.1875
366 -3.7594 33.6921 14.0417
367 1.2649 27.5646 38.1669
368 1.248 28.9177 38.8722
369 2.2234 28.9658 40.0448
370 1.6036 28.2827 41.2605
371 1.9388 26.7942 41.2848
372 3.4402 26.6 41.0935
373 4.3266 28.8598 39.6125
374 5.7421 29.3727 39.8619
375 6.3628 28.7583 41.1132
376 5.8434 29.4785 42.3543
377 6.9561 29.6792 43.3791
378 6.5884 28.9787 44.684
379 34.4417 39.4181 33.2717
380 33.1789 38.9264 33.9731
381 33.3444 37.5153 34.5301
382 34.746 36.9983 34.2189
383 35.1817 37.4035 32.8136
384 33.9599 37.5133 31.906
385 37.0078 42.1022 28.46
386 36.2061 41.3788 27.3818
387 37.1064 40.7508 26.3217
388 37.751 41.846 25.4769
389 36.848 43.0727 25.3856
390 35.3859 42.6452 25.4757
391 19.4738 21.6645 18.0191
392 20.9872 21.7647 18.1872
393 21.5817 22.9038 17.364
394 22.7646 22.3891 16.5488
395 23.8551 21.8279 17.4567
396 24.8353 22.9357 17.8316
397 7.2674 32.7198 25.9955
398 6.1591 33.1918 26.9323
399 6.4238 34.5937 27.4738
400 7.4195 34.522 28.628
401 7.6617 33.0774 29.0559
402 6.8373 32.7628 30.3009
403 19.2565 33.9497 44.3202
404 19.3869 32.9558 43.1696
405 18.0935 32.8315 42.3693
406 17.593 31.3908 42.4173
407 16.8647 31.1053 43.7275
408 16.1666 29.7509 43.6455
409 20.0898 14.4913 12.8969
410 19.6089 13.7285 14.1279
411 18.5539 12.6826 13.779
412 19.0496 11.2958 14.1787
413 18.8978 10.3052 13.0279
414 20.1632 10.3071 12.1749
415 22.4269 18.1627 19.4926
416 22.5104 18.8784 18.1475
417 22.4828 17.9018 16.9753
418 21.0461 17.4688 16.6975
419 20.9385 15.9496 16.6027
420 21.6211 15.4624 15.3278
421 22.2532 37.2872 36.8241
422 21.7671 37.9142 38.1277
423 22.9184 38.4683 38.9621
424 22.3749 39.081 40.2497
425 20.8903 39.4087 40.1184
426 20.2144 39.2963 41.4819
427 16.6406 24.2519 13.7853
428 16.3106 22.8696 13.2295
429 17.3999 21.8489 13.5463
430 16.7735 20.5963 14.1522
431 15.7781 19.9579 13.1877
432 14.9922 18.8646 13.9058
433 10.8603 33.6326 29.5377
434 12.3334 33.4713 29.1735
435 12.6892 34.2053 27.8838
436 14.1959 34.4393 27.8217
437 14.9642 33.1503 28.0988
438 14.1444 31.9506 27.6327
439 10.6739 11.3762 18.3132
440 12.1795 11.1701 18.4528
441 12.641 11.2756 19.9035
442 11.94 10.2144 20.7469
443 10.5587 9.8902 20.1852
444 10.3038 8.3884 20.277
445 16.7983 34.7229 38.9188
446 16.8815 33.9489 40.2313
447 18.2942 33.4445 40.5113
448 18.4761 32.0554 39.9063
449 17.3006 31.6908 39.0041
450 15.9877 31.9399 39.741
451 14.0268 13.9528 17.0503
452 15.0982 13.0365 17.6344
453 16.0472 13.7847 18.5663
454 17.4238 13.8996 17.9178
455 17.3468 14.6574 16.5955
456 16.8068 16.064 16.8374
457 0.2922 14.1654 29.3453
458 1.5392 13.7125 28.5913
459 1.2261 13.3133 27.1521
460 -0.2852 13.2464 26.9519
461 -0.6376 13.0929 25.475
462 0.1065 14.1431 24.6551
463 -0.6464 5.8111 29.0384
464 -1.301 7.0019 29.7328
465 -0.4374 8.2576 29.6547
466 0.9861 7.9338 30.099
467 1.9996 8.8286 29.3914
468 2.8123 8.0028 28.3982
469 27.4735 1.4724 5.8934
470 28.2875 0.7528 4.8218
471 29.6583 1.3913 4.6173
472 29.5343 2.9111 4.6776
473 28.1632 3.3704 4.19
474 28.2238 4.8419 3.7904
475 24.6286 4.9398 6.4696
476 25.2952 4.2838 7.6754
477 25.3461 5.2175 8.8813
478 24.0877 5.0393 9.7259
479 22.9826 5.989 9.2726
480 21.6712 5.6208 9.9607
481 21.7328 39.4119 -1.0988
482 21.9071 40.5401 -2.1115
483 23.3025 41.1548 -2.0511
484 24.2345 40.4155 -3.0068
485 24.152 38.9062 -2.7971
486 25.3326 38.4374 -1.9515
487 35.3732 2.2528 18.0908
488 34.5339 2.2495 16.8164
489 35.2914 2.837 15.629
490 35.1977 1.8893 14.4366
491 35.0009 2.6614 13.1351
492 36.0102 2.1848 12.0946
493 37.8635 39.239 4.0029
494 38.9979 38.5777 4.7804
495 40.0424 39.5894 5.243
496 39.4395 40.9913 5.2422
497 40.2068 41.9188 4.3043
498 41.5858 42.2158 4.8864
499 12.1815 42.6348 33.7308
500 11.7711 41.319 33.0759
501 12.2437 40.1082 33.8754
502 11.4225 38.8815 33.4887
503 12.1831 37.9996 32.5026
504 13.5903 37.7319 33.0287
505 19.5994 17.2903 28.8242
506 20.3424 16.9929 30.1235
507 20.2363 18.1427 31.1212
508 19.5659 17.6546 32.4023
509 20.3768 18.0516 33.6325
510 21.3842 16.954 33.9628
511 31.5059 38.9899 41.5417
512 32.989 38.6993 41.7524
513 33.8423 39.1984 40.5898
514 35.0759 38.3132 40.4372
515 34.7276 36.8433 40.6534
516 34.5772 36.1448 39.305
517 14.7859 0.6186 18.2849
518 13.6344 -0.0349 17.5263
519 13.4393 0.5764 16.1417
520 13.8661 2.0414 16.1592
521 13.4262 2.7266 17.4498
522 14.0744 4.1045 17.5495
523 23.4357 20.0851 28.7239
524 23.8587 19.3213 29.9754
525 25.2844 19.6611 30.4005
526 25.2678 20.8437 31.3647
527 26.4338 20.7689 32.3463
528 27.2685 19.5234 32.0622
529 11.1583 2.0945 18.2235
530 11.7592 1.8772 16.8377
531 11.2109 2.8662 15.8131
532 12.0855 4.1163 15.7825
533 11.2783 5.3607 16.1411
534 11.5261 5.7339 17.5999
535 28.8488 0.3293 19.4881
536 27.4345 0.539 18.9548
537 26.5736 -0.7121 19.1043
538 26.4696 -1.0944 20.5779
539 27.7214 -0.6761 21.3438
540 28.2455 -1.8548 22.1592
541 32.1496 20.6014 40.5505
542 33.2871 20.9006 39.5783
543 34.6557 20.6235 40.1937
544 35.4821 19.7578 39.2469
545 36.7531 19.258 39.9275
546 37.9193 19.3094 38.9446
547 15.0593 33.926 5.0952
548 15.7535 34.6026 6.2737
549 17.2452 34.284 6.3209
550 17.9584 34.9785 5.1643
551 19.0246 34.0737 4.5535
552 18.5058 32.6403 4.4818
553 38.883 0.2357 26.7274
554 38.0101 -0.5394 27.7103
555 36.6169 0.0688 27.8434
556 36.6664 1.2729 28.7796
557 37.5841 1.0067 29.9693
558 38.5412 -0.1347 29.6376
559 19.6472 3.7795 22.4969
560 18.9941 2.522 23.0634
561 17.921 2.849 24.0978
562 16.9814 1.6578 24.2616
563 16.4843 1.1598 22.9075
564 17.6699 0.7267 22.0499
565 21.0574 -1.3774 23.3714
566 19.7786 -0.8231 23.9928
567 19.1216 -1.8221 24.9409
568 19.662 -1.6251 26.3543
569 21.1623 -1.3465 26.3351
570 21.8009 -2.0411 25.1358
571 5.042 35.4739 39.7147
572 4.8831 36.0857 38.3258
573 5.8217 37.2692 38.1094
574 5.0084 38.5256 37.8116
575 3.8273 38.2119 36.8976
576 3.185 39.5111 36.42
577 -2.0606 14.9552 34.6166
578 -1.7764 13.7402 33.738
579 -2.0056 14.0358 32.2586
580 -2.9048 15.2597 32.1097
581 -3.3546 15.4383 30.6624
582 -2.6773 16.6656 30.0593
583 35.4261 20.6607 2.7156
584 35.2082 19.9224 4.0332
585 36.1275 18.7124 4.1717
586 37.0124 18.8745 5.4044
587 38.1071 17.8118 5.4386
588 38.9723 18.002 6.6811
589 35.3441 27.7675 -0.1482
590 36.1184 26.4533 -0.192
591 36.5621 26.0022 1.1967
592 35.3961 25.3341 1.9197
593 35.5056 23.8136 1.8509
594 36.2171 23.4051 0.5642
595 28.9881 31.7137 37.7881
596 29.1782 30.2052 37.6579
597 27.9411 29.4304 38.103
598 28.1441 28.9034 39.5206
599 29.0578 29.8247 40.3238
600 30.3242 30.1198 39.5251
601 27.4589 26.6587 36.1156
602 26.3989 25.5883 36.359
603 25.45 25.4402 35.173
604 24.755 24.0831 35.2341
605 25.0188 23.39 36.5678
606 26.5154 23.3962 36.8654
607 9.6132 23.0668 0.7001
608 10.1026 21.654 0.395
609 11.4936 21.6517 -0.2326
610 12.4579 20.8664 0.6518
611 13.88 21.4061 0.5285
612 14.8756 20.3488 0.9971
613 18.9127 1.7751 28.4041
614 20.2389 2.0531 27.7023
615 20.057 2.2942 26.2065
616 18.6869 2.9136 25.946
617 18.6977 4.4122 26.2338
618 18.5718 4.6501 27.7359
619 18.3863 7.461 31.2993
620 19.8388 7.6507 30.8717
621 20.3336 6.5033 29.9958
622 21.3517 5.6673 30.7661
623 21.6826 4.3787 30.0189
624 22.8732 3.69 30.6799
625 43.529 19.9497 17.9384
626 44.52 20.5851 18.9093
627 44.3788 22.1036 18.9614
628 44.8697 22.7132 17.6514
629 45.5746 21.6695 16.7898
630 46.0161 20.4955 17.659
631 35.6094 24.3142 13.3925
632 36.7441 23.7121 14.2163
633 36.2256 22.8982 15.3984
634 36.5376 23.6258 16.703
635 36.7385 22.638 17.8487
636 35.4705 21.8122 18.0463
637 29.7663 36.1356 16.0421
638 28.524 35.5028 16.6626
639 28.8389 34.1801 17.3553
640 29.6388 33.2825 16.4155
641 29.9707 31.9491 17.0792
642 31.1458 31.293 16.3601
643 38.9505 18.0067 12.6385
644 39.5175 19.4225 12.5863
645 38.4662 20.4465 12.1685
646 37.1315 20.1161 12.8305
647 36.9904 18.6145 13.0632
648 35.5621 18.2907 13.4916
649 35.3857 29.7865 28.778
650 33.984 30.2699 29.1387
651 33.6429 31.5956 28.4643
652 32.4952 32.273 29.2077
653 32.3583 31.7237 30.6249
654 32.5794 30.2139 30.6167
655 39.0958 35.1397 25.6541
656 38.6724 36.3874 26.424
657 37.2135 36.7531 26.1664
658 36.463 35.537 25.6311
659 34.9588 35.7917 25.5949
660 34.6342 36.8122 24.5077
661 6.3902 28.4011 11.465
662 6.7045 29.8833 11.647
663 5.7984 30.7704 10.7981
664 4.3764 30.7354 11.3509
665 3.5015 31.7932 10.6843
666 2.6463 31.1462 9.5986
667 38.827 40.6746 1.8573
668 40.3437 40.8376 1.8159
669 40.7698 42.026 0.9586
670 40.4995 41.7248 -0.5127
671 41.4518 40.6545 -1.0385
672 40.6537 39.4516 -1.5331
673 5.5371 33.475 12.7844
674 4.2639 34.0485 12.169
675 4.4192 34.3164 10.6748
676 4.9323 35.7367 10.4554
677 6.269 35.7306 9.7192
678 6.753 37.1635 9.5163
679 5.2816 31.8296 15.5437
680 6.6025 31.2812 15.0117
681 6.3913 30.1788 13.9778
682 6.0857 28.8607 14.6834
683 5.8688 27.7354 13.6757
684 6.0595 26.3853 14.3609
685 35.6942 42.8966 5.8676
686 37.0224 43.0043 5.1241
687 36.9524 42.3836 3.7317
688 36.5219 43.4388 2.7169
689 35.0597 43.8277 2.9153
690 34.2817 42.6411 3.4768
691 31.4829 40.7624 1.379
692 32.7788 40.6292 2.1736
693 32.5432 40.7355 3.6775
694 31.4145 39.7954 4.0911
695 30.863 39.0361 2.8878
696 29.4681 38.5061 3.2071
697 10.6244 33.851 5.1209
698 10.4929 33.0598 3.8226
699 9.2098 33.4009 3.0703
700 8.1216 33.8037 4.0613
701 7.1525 34.8036 3.437
702 7.3415 36.1751 4.0789
703 18.6735 14.6533 34.218
704 19.9531 13.9076 33.8501
705 19.6682 12.5024 33.3275
706 19.0106 12.586 31.9531
707 19.6459 13.6847 31.1058
708 18.5642 14.423 30.3225
709 17.3656 22.6634 32.2389
710 18.2666 23.6928 31.5628
711 19.5559 23.9282 32.3445
712 20.5505 22.8091 32.0493
713 20.3523 22.2551 30.6413
714 21.3912 22.8563 29.6991
715 17.8304 19.7698 32.4352
716 17.4337 19.4516 30.9964
717 17.4831 17.9544 30.7054
718 16.1009 17.4645 30.2833
719 15.0905 18.608 30.2781
720 15.7418 19.8697 29.7192
721 17.552 31.6351 12.6698
722 17.3982 31.7368 11.1549
723 15.9993 32.1923 10.7496
724 15.9575 33.7151 10.6604
725 14.773 34.2789 11.44
726 14.2996 35.5769 10.7921
727 16.5198 36.9649 16.0457
728 16.4631 35.6326 15.3038
729 17.01 34.4834 16.1458
730 15.8814 33.8562 16.959
731 14.5996 33.7593 16.1366
732 13.4352 33.3643 17.0403
733 23.1039 30.3159 13.803
734 22.4179 31.642 13.4872
735 21.9604 32.3662 14.7501
736 20.882 33.3869 14.3981
737 21.0681 34.6781 15.1897
738 19.8305 34.9439 16.0421
739 8.714 14.7027 30.0425
740 8.5242 13.627 28.9769
741 9.3708 12.3882 29.2549
742 8.6716 11.15 28.7012
743 8.3772 10.1433 29.8096
744 7.4668 9.0406 29.2768
745 7.1093 20.4508 32.4729
746 7.4314 19.3375 33.4656
747 6.6557 18.0583 33.1646
748 5.3194 18.4054 32.5147
749 5.0484 19.9056 32.583
750 3.5567 20.1695 32.3987
751 -0.4964 17.5594 25.0247
752 -0.0625 16.1541 24.6177
753 -0.7954 15.6658 23.3715
754 -2.0738 16.4753 23.1736
755 -2.1753 17.0017 21.7449
756 -3.6247 17.359 21.4283
757 2.557 17.7893 27.6163
758 3.8842 17.1275 27.2565
759 3.744 15.6179 27.0829
760 5.1108 14.9532 27.2203
761 5.1904 13.6817 26.3803
762 3.9785 12.7989 26.6642
763 11.284 16.1061 26.8731
764 11.127 14.78 27.6117
765 10.0293 14.8391 28.67
766 10.561 15.5194 29.9282
767 10.9456 14.4911 30.9882
768 10.9162 13.0905 30.383
769 6.6736 13.2168 28.5516
770 6.8066 13.9538 29.8811
771 5.4708 14.0683 30.6099
772 5.6986 14.5847 32.0277
773 4.498 15.3881 32.5195
774 4.6462 15.6771 34.0105
775 12.1536 16.6009 41.3148
776 13.1305 16.2613 40.1928
777 13.1955 14.7607 39.9232
778 13.5254 14.5137 38.4539
779 14.9338 13.9483 38.2945
780 14.887 12.4239 38.3472
781 12.0987 42.6237 9.3855
782 10.6996 42.9859 8.8957
783 10.432 44.4858 8.9817
784 11.7382 45.2545 8.8041
785 11.4782 46.7491 8.6386
786 11.7874 47.1711 7.2051
787 -1.8054 3.5299 5.1486
788 -1.9973 2.5742 6.3227
789 -1.9219 3.2935 7.6664
790 -2.9783 2.7313 8.6132
791 -2.5142 1.4183 9.2371
792 -0.9955 1.3074 9.1362
793 -0.4382 5.2966 8.2221
794 0.3874 6.5631 8.4294
795 -0.4749 7.746 8.8605
796 -1.7899 7.7358 8.0862
797 -1.5439 7.5904 6.5872
798 -0.0449 7.4988 6.3167
799 0.2245 11.9446 3.1252
800 -0.4788 13.297 3.0525
801 -1.6016 13.4157 4.0791
802 -2.1013 14.8565 4.1336
803 -3.0593 15.1498 2.9825
804 -4.37 14.3986 3.1978
805 24.6731 4.3246 25.5252
806 23.6592 3.8948 24.4689
807 22.3855 3.3309 25.0921
808 22.7439 2.2742 26.1331
809 23.0674 0.938 25.4708
810 24.5802 0.759 25.3817
811 39.3883 4.7234 38.0551
812 38.7024 5.7773 37.1905
813 38.4628 5.2841 35.7665
814 39.7531 4.7004 35.1981
815 39.8599 3.2079 35.4978
816 38.478 2.6458 35.819
817 9.9094 38.6588 7.9858
818 10.3145 39.4584 9.2208
819 9.8782 38.7765 10.5144
820 11.0587 38.6932 11.4779
821 12.023 39.8571 11.2675
822 11.2564 41.0788 10.769
823 37.1052 3.1729 32.7903
824 37.394 1.717 32.4359
825 38.8125 1.3039 32.8178
826 38.8252 0.7562 34.2421
827 37.5973 -0.1099 34.5086
828 38.0145 -1.5725 34.6325
829 26.3962 39.9282 13.7982
830 27.7875 40.5244 13.9925
831 28.3438 40.2412 15.3849
832 29.7324 40.8589 15.5218
833 30.5126 40.2099 16.6614
834 31.7891 39.575 16.1171
835 25.3381 16.4202 7.3951
836 24.817 15.7697 6.1168
837 24.4172 16.804 5.0685
838 25.6639 17.4931 4.5211
839 26.0114 18.7325 5.3408
840 24.7721 19.608 5.5031
841 23.6659 18.1949 6.6566
842 24.4699 19.01 7.6656
843 25.948 19.086 7.2941
844 26.7403 19.6915 8.4493
845 26.8062 18.7312 9.6334
846 27.6038 19.3661 10.7689
847 39.384 19.5238 14.8065
848 38.7333 20.3938 15.8781
849 39.2414 21.8321 15.836
850 38.1344 22.7566 15.3377
851 38.7139 23.9584 14.5971
852 38.2954 25.2476 15.2982
853 39.6667 44.9617 20.7215
854 40.1272 43.5525 20.3598
855 41.5343 43.2595 20.8725
856 42.5228 44.2492 20.2625
857 43.8305 43.5586 19.8864
858 44.878 44.6042 19.5147
859 32.7692 19.2307 15.1833
860 33.9698 19.8364 15.9047
861 34.6081 18.8532 16.8817
862 36.1144 18.7939 16.6446
863 36.4677 17.7181 15.6216
864 37.9349 17.8476 15.2224
865 43.6854 41.486 23.565
866 42.2651 41.1971 24.0425
867 42.1615 39.8509 24.7536
868 41.239 39.9752 25.9628
869 39.7918 39.6751 25.5831
870 39.7542 38.8785 24.2821
871 20.4631 0.649 -2.8722
872 20.4082 -0.806 -3.3289
873 18.9823 -1.3496 -3.3428
874 18.045 -0.358 -2.6595
875 18.0557 0.9903 -3.3742
876 16.6237 1.4389 -3.6514
877 18.8401 0.3774 1.2329
878 17.9659 -0.1736 0.11
879 16.7965 0.752 -0.2135
880 17.122 1.5819 -1.452
881 18.0212 2.7637 -1.1009
882 18.5285 3.4241 -2.3797
883 13.9605 -0.7509 24.2318
884 12.9346 0.0036 25.0727
885 12.8988 -0.4925 26.5154
886 12.533 -1.9737 26.5432
887 13.3547 -2.7231 27.5882
888 13.7701 -4.0848 27.0386
889 11.4861 5.9488 33.6913
890 10.1343 5.2419 33.7337
891 9.2123 5.8302 34.7979
892 9.9952 6.7958 35.683
893 10.3702 8.0616 34.9177
894 9.1185 8.8922 34.6492
895 11.5159 2.9151 35.1341
896 11.5541 1.5008 35.706
897 10.6395 1.347 36.9179
898 9.248 0.916 36.4633
899 8.6573 -0.1231 37.412
900 7.2684 -0.5318 36.9297
901 38.6102 1.2468 8.8478
902 38.7949 0.1115 7.8451
903 39.1124 -1.2141 8.5312
904 40.5155 -1.1631 9.129
905 41.2468 -2.4874 8.9282
906 41.8031 -2.5598 7.5091
907 31.0832 15.4628 3.6715
908 31.3206 15.7786 5.1455
909 30.195 16.6197 5.7407
910 29.1432 16.9049 4.6725
911 27.7819 16.348 5.0793
912 27.3124 15.3273 4.0466
913 40.0396 6.2421 3.1457
914 40.8662 5.504 4.1948
915 41.9193 6.4049 4.8334
916 42.5467 7.3008 3.7692
917 43.9918 7.6424 4.1207
918 44.7548 6.3664 4.4647
919 44.5173 16.2875 14.077
920 43.9536 17.5996 14.6148
921 44.0014 18.7142 13.5735
922 44.6082 18.1844 12.2774
923 45.78 17.249 12.5613
924 45.7401 16.0651 11.5994
925 29.2097 29.4275 33.5388
926 28.0852 30.4425 33.7227
927 28.6166 31.8331 34.0583
928 27.5521 32.8815 33.7484
929 26.1645 32.3921 34.153
930 25.6167 31.4516 33.0834
931 38.9181 -4.0678 10.7901
932 37.7786 -3.4143 10.0134
933 37.6773 -3.9465 8.5868
934 38.8671 -3.4559 7.7668
935 39.54 -4.6102 7.0297
936 39.1652 -5.9333 7.6912
937 36.2286 14.05 14.1985
938 37.307 15.0977 14.4594
939 38.1345 14.7729 15.6997
940 37.372 15.1918 16.9535
941 36.4953 14.0543 17.4693
942 36.454 12.9275 16.441
943 39.6323 1.8446 4.8638
944 39.7829 3.3521 4.6808
945 39.1145 3.8442 3.4003
946 39.147 2.7428 2.3445
947 39.9076 3.1955 1.1015
948 39.0731 2.9149 -0.1449
949 5.6071 8.0041 5.6378
950 6.9355 7.4233 5.1614
951 7.938 7.2731 6.3019
952 7.9641 5.8239 6.7791
953 6.7906 5.5305 7.7095
954 6.4013 6.7981 8.4646
955 16.2101 8.9496 11.2787
956 16.2507 9.4322 9.8316
957 15.0378 10.288 9.4779
958 15.4704 11.4596 8.6011
959 14.3499 11.8807 7.6545
960 14.9308 12.6753 6.4884
961 27.271 31.1041 28.6006
962 28.2172 32.1109 29.2483
963 29.5907 32.1176 28.5833
964 30.6577 32.4977 29.6058
965 30.2677 33.7644 30.3621
966 31.5238 34.5249 30.7775
967 13.0546 11.1742 11.3579
968 12.0569 10.1991 11.9765
969 10.6255 10.7236 11.91
970 9.8898 10.0706 10.7433
971 9.8407 11.001 9.5347
972 11.1702 10.9473 8.7877
973 30.823 37.4599 37.4893
974 29.3985 37.0807 37.0945
975 29.2534 35.5834 36.8385
976 28.6389 34.9076 38.061
977 27.6287 33.8405 37.6493
978 26.9829 34.2262 36.3215
979 -5.0893 28.6667 12.2417
980 -4.893 27.1958 12.5974
981 -4.5837 26.3448 11.369
982 -3.3514 25.4845 11.6337
983 -3.4166 24.1757 10.8516
984 -4.7055 24.1255 10.0361
985 20.1223 10.6358 17.1478
986 19.2972 11.3688 16.094
987 18.5683 12.5773 16.6745
988 19.3379 13.8527 16.3432
989 19.9759 14.4501 17.5941
990 18.9296 15.2306 18.3845
991 15.8056 7.6715 13.8419
992 14.5319 6.9769 14.3149
993 13.3334 7.3129 13.432
994 12.0389 7.0282 14.1882
995 12.2817 6.9783 15.694
996 13.6918 7.4712 16.006
997 38.1839 35.0586 -0.8992
998 38.0601 36.2261 -1.874
999 38.8919 37.4287 -1.4375
1000 38.374 38.6905 -2.1218
1001 36.8767 38.5905 -2.3986
1002 36.5313 37.1793 -2.8653
1003 -6.2024 33.8384 17.598
1004 -6.219 32.4117 18.1393
1005 -6.1567 31.3736 17.0226
1006 -6.8177 31.9286 15.7641
1007 -7.3391 33.3439 15.9958
1008 -8.1758 33.3833 17.2714
1009 1.2548 23.1787 32.788
1010 1.0935 23.5993 34.2459
1011 2.3556 24.2573 34.7963
1012 1.9814 25.2742 35.8708
1013 0.4741 25.5102 35.903
1014 -0.0331 25.7999 34.4932
1015 -7.6982 28.0613 13.9927
1016 -6.9793 29.1596 14.771
1017 -6.5714 30.3251 13.8744
1018 -7.0077 30.0493 12.4383
1019 -7.2554 28.5601 12.2157
1020 -8.7034 28.3359 11.7893
1021 7.126 26.1324 32.1007
1022 6.0645 25.1253 32.5338
1023 4.6625 25.7278 32.5202
1024 3.625 24.6261 32.7168
1025 4.0063 23.3677 31.9425
1026 3.4077 23.4236 30.5399
1027 1.8873 27.4978 11.6694
1028 0.7764 28.5399 11.5772
1029 0.3742 29.0727 12.9494
1030 1.4905 28.8052 13.9548
1031 1.7712 27.3104 14.0795
1032 0.4636 26.5569 14.3057
1033 2.0932 33.9138 34.733
1034 2.3033 33.1925 36.0613
1035 1.1934 32.1857 36.3493
1036 1.6687 30.7786 35.9986
1037 3.0271 30.4845 36.6286
1038 2.8671 29.4542 37.7428
1039 3.8506 28.1679 33.783
1040 5.1736 28.4637 34.4836
1041 5.7734 29.7945 34.0389
1042 4.6675 30.8355 33.8906
1043 3.3482 30.3205 34.4588
1044 2.1876 31.1226 33.8771
1045 35.8928 -0.3092 0.9682
1046 37.3983 -0.3026 0.7192
1047 38.168 -0.9985 1.8381
1048 39.1416 -0.0165 2.4835
1049 38.8395 0.1609 3.9687
1050 37.3475 -0.0388 4.2193
1051 16.6776 19.1663 15.5973
1052 16.2191 17.8321 15.0157
1053 16.5594 17.7051 13.5335
1054 18.0687 17.5602 13.3607
1055 18.7648 18.9151 13.4525
1056 19.9282 18.832 14.4365
1057 16.3124 20.6068 9.3689
1058 16.7986 19.1605 9.3525
1059 15.7135 18.1956 8.8833
1060 15.7873 18.0327 7.3678
1061 14.7361 18.8917 6.6709
1062 15.4159 20.0409 5.932
1063 24.658 0.5613 37.6953
1064 25.3509 -0.7655 37.9926
1065 24.5543 -1.6217 38.9729
1066 23.277 -0.8911 39.3771
1067 22.1268 -1.2323 38.434
1068 22.532 -2.3872 37.5227
1069 21.087 19.4043 16.0592
1070 21.8962 19.7121 14.8026
1071 23.3758 19.9239 15.1106
1072 24.1577 18.6541 14.7866
1073 23.2348 17.5608 14.256
1074 21.8436 17.7205 14.8624
1075 8.8141 17.2073 0.9709
1076 9.489 17.1986 2.3395
1077 10.5523 18.2864 2.4618
1078 11.6498 17.8305 3.419
1079 11.2241 18.0178 4.8724
1080 12.4044 18.5276 5.6943
1081 1.0067 16.9586 5.3493
1082 0.301 17.775 6.4282
1083 -1.183 17.9632 6.1267
1084 -1.9537 16.7066 6.5214
1085 -2.4291 16.7856 7.9693
1086 -1.782 17.9823 8.6604
1087 15.6932 25.6853 11.6916
1088 16.9198 24.7834 11.5887
1089 17.4 24.63 10.1483
1090 16.5371 23.6015 9.423
1091 16.8258 23.6007 7.9245
1092 15.905 24.5936 7.2211
1093 20.4356 20.5134 12.8325
1094 19.451 21.247 13.7388
1095 19.5516 20.7836 15.1893
1096 19.4251 21.9827 16.1245
1097 18.7632 23.1627 15.4187
1098 19.2817 24.4722 16.0061
1099 19.1149 21.7032 7.8531
1100 17.6167 21.4152 7.8874