
thermo 1000
thermo_style custom step temp f_7 f_8
WARNING: New thermo_style command, previous thermo_modify settings will be lost (../output.cpp:705)
thermo_modify flush yes

run       40000000
WARNING: Inconsistent image flags (../domain.cpp:782)
Per MPI rank memory allocation (min/avg/max) = 9.452 | 9.808 | 9.824 Mbytes
Step Temp f_7 f_8 
 8001865    298.28942           -0           -0 
 8002000     295.9987   -31.662603    82.394175 
 8003000    296.51001   -100.86047    115.69836 
 8004000    290.24532   -89.574153    228.29814 
 8005000    295.84152   -106.58042    163.02596 
 8006000    292.98351   -117.80224    160.36438 
 8007000    304.57878   -258.38016    156.06716 
 8008000    293.95972   -135.86776    199.52394 
 8009000    295.50389   -236.53622    223.70559 
 8010000    298.23783   -127.15485    226.48883 
 8011000    298.65159   -178.41986    227.55209 
 8012000    296.02789   -152.00866    268.89625 
 8013000    295.46809   -208.24723    192.02203 
 8014000    298.85142   -235.49178    177.92328 
 8015000    296.64605    -260.5105    217.04977 
 8016000    297.08419   -196.88029    313.00973 
 8017000    298.24887   -208.64777    304.73234 
 8018000    298.74098   -297.79363    340.70706 
 8019000    292.84908   -236.73001     272.0362 
 8020000    301.24441   -371.23777    286.28643 
 8021000    296.91297   -304.98663    341.71993 
 8022000    300.84503   -366.44736    307.87322 
 8023000    305.68278   -368.83977    265.26311 
 8024000    301.47899   -350.05605    293.01359 
 8025000    301.89691   -418.02012    317.90505 
 8026000    302.84106    -382.6287    309.32865 
 8027000    305.42453   -464.44422    360.24121 
 8028000    291.94411   -348.14465    422.78337 
 8029000    295.28391   -439.78324    438.09521 
 8030000     297.3158   -424.22198    446.81848 
 8031000    299.53267   -394.84046    407.12669 
 8032000    295.60109   -458.34808    506.82871 
 8033000    292.63488   -465.49145    514.66144 
 8034000    301.67914   -503.90197    464.01087 
 8035000    299.59223   -449.41591    464.31451 
 8036000    303.01988   -551.77293    447.73507 
 8037000    299.41993   -528.39371    516.73161 
 8038000    296.92175   -561.02136     505.8934 
 8039000    297.53079   -505.18092    553.54026 
 8040000    297.35072   -537.04063    496.52384 
 8041000     297.4805   -655.41236    662.25394 
 8042000    300.30261   -691.48823    606.06516 
 8043000    298.09616   -623.77518    563.13052 
 8044000    294.59669   -584.17505    645.51777 
 8045000     298.6517   -604.36648    626.54566 
 8046000    297.97264   -597.61551    627.13007 
 8047000     296.4638   -610.94974     610.0968 
 8048000     298.0174   -618.74547    615.62391 
 8049000    296.05464   -621.11766    632.53586 
 8050000    299.09424   -676.00288    605.42899 
 8051000    297.92583   -705.55227    650.72752 
 8052000    302.04076    -741.4632    682.03353 
 8053000    297.43689   -842.27582      731.406 
 8054000    306.79165   -847.10272    663.26574 
 8055000    298.16245    -761.5854    737.91246 
 8056000     297.9789   -781.03521    720.20264 
 8057000    302.41292    -833.2109    761.29596 
 8058000    299.62185   -868.21725     784.2727 
 8059000    299.50315   -917.76099    841.87971 
 8060000    299.74462   -894.13402    857.10366 
 8061000    295.67839   -831.86747    889.35448 
 8062000    297.34843   -876.49475    856.39154 
 8063000    303.53374   -960.42487    910.01334 
 8064000    299.66397   -933.53523    847.62781 
 8065000     296.5427   -939.35025     858.9678 
 8066000    301.15886   -1003.5696    873.72787 
 8067000    298.91154   -986.98124    914.98875 
 8068000    299.71438   -981.27292      897.212 
 8069000    305.85369   -1053.4793    908.93946 
 8070000    303.90364   -1074.3087    906.87538 
 8071000    303.85993   -1055.4587    963.03205 
 8072000    301.27678   -1074.6975    978.72124 
 8073000    299.90541   -1057.6693    1076.7291 
 8074000    296.22105   -1052.3417    1085.9921 
 8075000    300.09376   -1133.6024    1083.3932 
 8076000    302.79855   -1212.8573    1098.8632 
 8077000     308.5043   -1276.0283     1036.301 
 8078000    302.08283   -1238.2751    1053.1975 
 8079000    304.30551   -1277.9978    1096.2261 
 8080000    303.48211     -1200.67    1146.1801 
 8081000     308.4976   -1337.8643    1099.0755 
 8082000    308.04688   -1302.0433     1062.653 
 8083000    299.76113   -1241.1045    1184.8782 
 8084000      299.358   -1160.2526    1223.9002 
 8085000    293.82167   -1202.5494    1270.9264 
 8086000    297.86273   -1201.8073    1191.6387 
 8087000    295.86199   -1223.1358    1224.3771 
 8088000    301.06696   -1245.6496    1184.9774 
 8089000    296.67483   -1230.0059    1168.7144 
 8090000    300.37118   -1287.6673    1172.8518 
 8091000    304.17707   -1290.4866    1200.7227 
 8092000    305.20221   -1365.5967    1211.9212 
 8093000    299.27027   -1291.5313    1292.3967 
 8094000     295.0182   -1332.7116    1323.5452 
 8095000    294.74063   -1324.7643    1354.4901 
 8096000    301.11174    -1343.867    1361.6698 
 8097000    299.23365   -1305.4177    1303.4226 
 8098000    297.78287   -1334.5764    1327.8414 
 8099000    293.54088   -1369.3126     1371.503 
 8100000    297.06802   -1357.4272    1392.6856 
 8101000    301.62154   -1376.3122    1330.2695 
 8102000     297.2044   -1368.1551    1364.8171 
 8103000    298.79962   -1482.2252    1384.8799 
 8104000    299.07637   -1444.4213    1355.2148 
 8105000    298.41495   -1432.0031    1372.5613 
 8106000    301.79764    -1522.053     1392.422 
 8107000    302.47873   -1540.3673    1449.6507 
 8108000    297.81867   -1565.4182    1486.9515 
 8109000    301.84326   -1619.1517    1463.2957 
 8110000    304.87045   -1596.6439    1423.2001 
 8111000    300.14193   -1571.7209    1475.6151 
 8112000    307.45704   -1621.2567    1514.3935 
 8113000    296.79043   -1642.5126    1599.5454 
 8114000    304.05601   -1635.4487    1545.9087 
 8115000    299.09152   -1695.0203    1596.2571 
 8116000     303.9337   -1725.9847    1594.4783 
 8117000    301.66823   -1722.1686    1634.0347 
 8118000    298.50894   -1634.9151    1667.1819 
 8119000    300.13815   -1727.4549    1680.1031 
 8120000    299.57268   -1751.7015    1641.3573 
 8121000    299.47907   -1815.5727    1764.6484 
 8122000    297.36075   -1826.0655    1760.1168 
 8123000    299.38374   -1821.2621    1721.2558 
 8124000    297.84537   -1877.7691    1796.9476 
 8125000    291.66443   -1846.1861    1823.5875 
 8126000     292.2056   -1761.0018    1865.2353 
 8127000    302.33071   -1844.4911    1822.7631 
 8128000    295.71804   -1857.3392    1913.5899 
 8129000    301.66021   -1891.8764    1901.6275 
 8130000    295.88661   -1893.2321    1947.5441 
 8131000    299.85014   -1849.1446    1912.4608 
 8132000    292.92213   -1860.4924    1972.6825 
 8133000    293.10567   -1918.3909     1941.728 
 8134000    300.17493   -1973.7518    1910.2496 
 8135000    300.49074   -1979.7619    1936.2424 
 8136000    302.11744    -1992.279    1938.5007 
 8137000    303.75899   -2050.3761    1943.3751 
 8138000    301.37859   -2067.2856    1968.9152 
 8139000    303.62276   -2095.5153    1956.7419 
 8140000    300.30633   -1996.1311     1977.806 
 8141000    303.86546   -2160.3484    2048.1271 
 8142000    299.99634   -2056.8813     2025.372 
 8143000     297.7742   -2064.0426    2020.4869 
 8144000    297.65576   -2060.0232    2035.4079 
 8145000    294.59797   -2092.6206    2150.2587 
 8146000    301.00375   -2103.6695    2102.6029 
 8147000     300.0135    -2130.071    2088.6895 
 8148000    297.24962   -2190.6199    2149.7242 
 8149000    295.13447    -2139.782    2161.5622 
 8150000    298.15759   -2198.6482    2206.2367 
 8151000    297.17185   -2194.8429    2230.5809 
 8152000    297.60983   -2253.0072    2286.3372 
 8153000    295.18136   -2214.2423     2258.223 
 8154000    294.58393   -2193.7438    2206.8773 
 8155000    295.50687   -2186.7219    2263.2601 
 8156000    297.46968   -2307.6504    2286.8964 
 8157000    302.72333   -2387.1729    2226.5502 
 8158000    295.51924   -2262.4373    2312.4128 
 8159000     299.0057   -2362.9376     2343.945 
 8160000    293.09032   -2330.2023    2393.5247 
 8161000    298.14139   -2354.7969    2415.9184 
 8162000    298.38134   -2413.0807    2359.2445 
 8163000    303.08315   -2491.8904    2347.9359 
 8164000    298.03164   -2467.0462    2458.3866 
 8165000     298.2076   -2521.5496    2373.3362 
 8166000    301.85642   -2547.2299    2447.1171 
 8167000    296.38096   -2500.6505    2529.6399 
 8168000    300.36768   -2475.5202    2418.1565 
 8169000    303.05476   -2507.2594    2403.9146 
 8170000     302.2526   -2587.2832    2504.9677 
 8171000    301.06902    -2529.899    2481.9555 
 8172000    301.08711   -2553.0445    2526.6232 
 8173000    299.54929   -2553.5997    2492.2909 
 8174000    304.42786   -2584.0701    2516.6427 
 8175000     302.0156   -2585.6697    2548.8248 
 8176000    303.72653   -2612.8582    2547.9807 
 8177000    302.38373   -2656.3502    2530.5636 
 8178000    301.46214   -2638.5025    2562.0166 
 8179000    302.28566   -2703.7256    2613.3784 
 8180000    300.26406   -2720.3792    2669.4073 
 8181000    304.69512   -2767.8825    2621.4655 
 8182000    299.20276   -2765.0943    2627.2129 
 8183000    303.67671    -2854.238    2660.8374 
 8184000    306.93098   -2929.4112     2644.211 
 8185000    301.21508   -2831.4971    2734.7231 
 8186000    302.19532   -2831.0247      2733.72 
 8187000    303.98177   -2873.6214    2739.4952 
 8188000     300.6672   -2770.3777    2762.1348 
 8189000    301.13307   -2854.0848    2817.7117 
 8190000     298.9108   -2799.6655    2838.2294 
 8191000    304.87138   -2889.1086    2788.2374 
 8192000    297.89375   -2866.1122    2944.9513 
 8193000    301.91305   -2930.6402    2848.3606 
 8194000    298.01091   -2931.5053    2932.2361 
 8195000    298.25899   -2932.5551    2908.8535 
 8196000    292.15869   -2877.9126    3002.7635 
 8197000    300.53789   -2948.1766    2946.9683 
 8198000    297.21118    -2953.967    2998.7249 
 8199000     300.2019   -3034.4577    2979.7648 
 8200000    300.51522   -2998.0674     2998.492 
 8201000    301.69413     -3004.61    2884.7112 
 8202000    299.35991   -3050.2859     3007.307 
 8203000    297.13929   -3093.0855    3016.8925 
 8204000    297.85036   -3066.8551    3058.1506 
 8205000    296.04133   -2991.8127    3020.3157 
 8206000    293.77285   -3034.2801    3065.6813 
 8207000    300.71953   -3018.6249    3040.2225 
 8208000    297.38512   -3055.0255    3139.0917 
 8209000    296.12093   -3062.4067    3133.0197 
 8210000    301.46946   -3100.4627    3059.2499 
 8211000    296.32563    -3106.577    3101.4304 
 8212000    302.04182   -3115.2289    3056.1025 
 8213000    296.79085   -3160.2534    3109.0193 
 8214000    299.34416   -3153.4521    3112.3312 
 8215000    298.17895   -3201.7222    3152.8206 
 8216000    300.35913   -3216.6111     3167.384 
 8217000    297.53557   -3193.4183    3213.3916 
 8218000    299.31029   -3275.0535    3235.1498 
 8219000     302.4218    -3301.577    3196.5892 
 8220000    303.55073   -3308.6112    3189.2541 
 8221000    298.50076   -3334.3793    3199.9131 
 8222000    300.65109   -3319.8197    3284.7706 
 8223000    303.08649   -3266.2542     3178.995 
 8224000    302.25813   -3290.6995     3189.426 
 8225000    296.75415   -3294.6868    3311.0564 
 8226000    298.46135   -3339.8028    3269.2079 
 8227000    295.74741   -3382.5326    3327.6372 
 8228000    303.62868   -3336.9535    3332.5303 
 8229000    307.61721   -3424.7735    3282.9196 
 8230000    308.51249   -3491.1088    3331.4083 
 8231000    292.90225   -3384.2374    3433.6936 
 8232000    301.09889   -3484.7219    3424.6187 
 8233000    303.59568   -3503.0528    3408.6949 
 8234000    300.88922   -3430.4041    3394.1351 
 8235000    303.80932   -3497.9655    3416.1547 
 8236000    297.35453   -3434.3059     3446.304 
 8237000    295.71037   -3482.0236    3473.0224 
 8238000    301.94163   -3529.0191    3474.2485 
 8239000    299.20365   -3466.4607     3448.063 
 8240000    295.18709   -3417.8306    3496.2059 
 8241000    300.03194   -3452.7661    3502.2354 
 8242000      296.679   -3479.0223    3508.4577 
 8243000    294.97789   -3484.4505    3544.9981 
 8244000    298.07971    -3509.053    3532.0047 
 8245000    296.11914   -3510.0141    3561.5769 
 8246000     294.5515   -3474.3889    3610.9574 
 8247000    297.44092   -3494.4949    3579.5722 
 8248000      297.988   -3581.6232    3545.0202 
 8249000     304.9782   -3561.8961    3523.5092 
 8250000    298.05974   -3564.5936    3537.2726 
 8251000    295.68544    -3552.398    3520.6237 
 8252000    293.22514    -3592.808    3639.4018 
 8253000    297.84233   -3608.7931    3563.1933 
 8254000    299.62015   -3579.2864    3585.9783 
 8255000     298.5869   -3625.7488    3582.6484 
 8256000    293.83639    -3634.664    3659.9008 
 8257000    298.93131   -3672.2091    3683.5063 
 8258000    296.97813   -3654.5339    3681.0518 
 8259000    296.01133   -3692.0002    3677.8881 
 8260000     297.9771   -3736.5301    3722.4983 
 8261000    293.62897   -3712.6986    3740.3073 
 8262000    294.95239   -3779.1575    3787.9562 
 8263000    296.16726   -3829.5315    3822.2434 
 8264000    293.80232   -3762.4735    3826.5948 
 8265000    298.72523   -3822.6443    3857.6418 
 8266000    303.72608   -3907.3209    3834.5187 
 8267000    293.12913   -3854.5936    3835.4938 
 8268000    302.16488   -3959.5196    3913.4583 
 8269000    300.14546   -3926.4256    3856.2179 
 8270000    293.20265    -3940.944    3930.7967 
 8271000     303.1357   -3885.7665    3860.6319 
 8272000    300.53764   -3952.9864    3877.1538 
 8273000    300.71255   -3925.8385    3933.2871 
 8274000     298.8798    -3965.844     3923.213 
 8275000    301.20755   -3961.7192     3923.892 
 8276000    296.14619   -3940.4273    3989.1863 
 8277000     299.8982   -4002.0979    3978.1735 
 8278000    299.70286   -3945.0093    3972.1008 
 8279000    304.22493   -4040.0678    3949.6798 
 8280000    297.22003   -4025.6332    3986.2345 
 8281000    306.09834   -4078.2504    3963.5686 
 8282000    298.28951   -4018.4529    4021.5634 
 8283000    295.05866   -4012.0609    4062.6653 
 8284000    293.92688   -4060.7631    4043.1761 
 8285000    294.54497   -4042.0809    4058.2844 
 8286000    301.35775   -4059.3085    4021.6055 
 8287000    296.68652   -4008.0381    4109.8321 
 8288000    302.41126   -4136.1355    4061.8911 
 8289000    303.57626   -4186.0396    4112.4871 
 8290000    301.96209   -4156.3317    4060.6228 
 8291000    297.27653     -4106.34    4094.3431 
 8292000    301.12983   -4200.1751     4136.309 
 8293000    299.47695   -4188.4408    4190.3056 
 8294000    299.36054    -4163.567    4095.0198 
 8295000     298.9038   -4191.6131    4145.4429 
 8296000      299.613   -4143.3543    4152.1794 
 8297000    300.69444    -4178.205    4110.2503 
 8298000    306.46717   -4218.1276    4130.4229 
 8299000    294.77333   -4203.8481    4223.3155 
 8300000    298.78423   -4219.5552    4127.1346 
 8301000    301.61491   -4228.1411    4160.8697 
 8302000    296.89691   -4192.6499    4201.7823 
 8303000    297.16288   -4252.8715    4227.1047 
 8304000    295.75098   -4366.2167    4302.1115 
 8305000    294.05348    -4288.142    4341.2398 
 8306000    301.06989   -4337.1165    4240.0111 
 8307000    297.88327   -4291.5942    4334.8631 
 8308000    298.02789   -4278.8595    4324.9186 
 8309000    294.78265   -4312.7573     4311.379 
 8310000    296.78474   -4266.2852    4387.2013 
 8311000    302.12084   -4354.1697    4298.5546 
 8312000    293.65266   -4338.4919    4354.4925 
 8313000    296.39385   -4395.7885    4430.1189 
 8314000    297.87554   -4411.7878    4443.5519 
 8315000    295.56052   -4405.5806    4416.2923 
 8316000    299.81652   -4481.8715    4423.3699 
 8317000    300.16438   -4491.4597    4429.5959 
 8318000     298.4938   -4533.9311     4477.901 
 8319000    295.88268   -4503.5683    4514.9577 
 8320000    305.60875   -4570.1115    4500.1118 
 8321000    293.44574   -4515.3398    4482.0012 
 8322000    302.77306   -4545.3198     4459.334 
 8323000    295.74241   -4554.4908    4544.9462 
 8324000    301.65077   -4615.3919    4567.1753 
 8325000    299.27612   -4639.0121    4533.9732 
 8326000    300.25563    -4636.516     4569.976 
 8327000    304.37158   -4708.4332    4569.6284 
 8328000    302.17377   -4671.6885    4550.9007 
 8329000    299.91746   -4740.1628    4619.3628 
 8330000    298.97393    -4739.396    4635.8268 
 8331000    299.61359   -4694.0321     4684.418 
 8332000    297.68438   -4732.1199    4702.6804 
 8333000    300.07426   -4691.1275    4692.5155 
 8334000    300.95645   -4791.6172    4731.5525 
 8335000    299.41767   -4746.9314    4712.9355 
 8336000     292.7568   -4688.2884    4731.3349 
 8337000    303.24893   -4811.6056    4723.2327 
 8338000    295.72822   -4836.9944     4804.073 
 8339000    300.94604   -4841.5821    4889.6605 
 8340000    305.49621   -4918.1757    4801.7465 
 8341000    296.68978   -4860.0677    4804.2746 
 8342000    300.85558   -4949.0629    4918.0429 
 8343000     297.3303   -4919.6032     4893.036 
 8344000    302.42316   -4920.9565    4928.7923 
 8345000    303.05293   -4916.2055    4927.6591 
 8346000    297.82508   -4944.1925    4993.2026 
 8347000    295.29289   -4946.9986    4989.9108 
 8348000    302.96989   -5000.0049    4967.5815 
 8349000    303.15196   -4964.1751    4956.7343 
 8350000    304.51686   -5027.2172    4971.7001 
 8351000    298.36189   -5028.0349    4998.5761 
 8352000    298.94786   -5085.9139    5021.4725 
 8353000    298.97026   -5090.5017    5048.6488 
 8354000    298.27803   -5025.1317    5035.6342 
 8355000    299.92173   -5100.3938    5124.2098 
 8356000    304.23354   -5084.6291     5066.741 
 8357000    301.57697   -5125.2457    5048.2598 
 8358000    293.42336   -5140.0045    5144.4139 
 8359000    297.61132   -5116.5941    5107.0786 
 8360000    300.59679   -5131.1086    5126.9261 
 8361000    300.16728   -5233.0339    5153.5297 
 8362000    297.11996   -5233.5448    5190.6382 
 8363000    298.14616    -5277.089    5209.6408 
 8364000    298.95477   -5237.1063    5234.1797 
 8365000    299.15855   -5250.2852    5174.1652 
 8366000      303.138   -5260.1614    5226.6063 
 8367000    296.82423   -5237.8258    5253.3927 
 8368000    294.77161   -5252.6411    5318.6455 
 8369000    290.70659   -5274.7886    5378.0085 
 8370000    296.97949   -5282.4739    5393.1694 
 8371000    296.33816   -5377.6977     5373.061 
 8372000    293.46106   -5355.3788    5398.2229 
 8373000    301.85579   -5420.1491    5366.1374 
 8374000    299.90125   -5381.2943    5384.1851 
 8375000    299.03593   -5409.6385    5400.8574 
 8376000    307.79658   -5452.3078    5332.1792 
 8377000    296.76114   -5392.4042    5430.9489 
 8378000     297.8288   -5419.9013    5432.6903 
 8379000    302.47743   -5530.8912    5439.4155 
 8380000    302.78597   -5561.9513    5447.1709 
 8381000    293.53684   -5466.9126    5528.6923 
 8382000    300.59672   -5467.2983    5486.3478 
 8383000    298.86702   -5444.9115    5507.8924 
 8384000    297.56819   -5473.1822    5479.7292 
 8385000     301.5152   -5531.9589    5478.9492 
 8386000    299.26285   -5603.6572     5526.009 
 8387000    298.84866   -5530.1442    5511.1598 
 8388000    297.06649    -5628.175    5614.7901 
 8389000    299.40333   -5618.0028    5634.9522 
 8390000    294.91669   -5597.1484    5555.6184 
 8391000    302.79794   -5666.1021    5594.9285 
 8392000    300.76989   -5649.9807    5622.5703 
 8393000    299.56904   -5666.6377    5631.9869 
 8394000    304.78844   -5694.9269    5628.5411 
 8395000    299.29701   -5741.1816    5623.2253 
 8396000    299.76657   -5710.4953    5644.0173 
 8397000    304.01275   -5722.9561    5693.2605 
 8398000    295.64687   -5674.3596    5718.1706 
 8399000    299.89031   -5720.1336    5708.3424 
 8400000    291.20111   -5705.5866    5751.3929 
 8401000    295.84612   -5712.0015    5807.6896 
 8402000    297.53786   -5795.8187    5822.3869 
 8403000    300.59772   -5784.8493    5837.1408 
 8404000    304.37128   -5804.3929     5756.068 
 8405000    290.34475   -5643.4932     5864.522 
 8406000    295.93546   -5765.3993    5819.2171 
 8407000    296.73234   -5843.6701     5803.668 
 8408000    295.56585   -5761.2336    5809.3779 
 8409000    296.11917   -5855.1445    5846.8433 
 8410000    300.25044   -5794.8506    5833.7893 
 8411000    293.16029   -5824.6721    5907.5207 
 8412000    296.90301   -5884.9827    5939.5165 
 8413000    292.91411   -5892.0994    5889.4247 
 8414000    299.48302   -5901.4997    5910.6032 
 8415000     298.4482   -5952.6612    5960.0569 
 8416000    301.60361   -5940.0032    5912.2247 
 8417000    298.17103   -6070.5202    5956.8603 
 8418000    300.01062   -6006.9797     5936.579 
 8419000    299.65206   -6033.7103    5989.5672 
 8420000    303.00207   -6104.9452    6007.5932 
 8421000    295.77294   -5999.3521     6045.016 
 8422000    295.25784   -6066.1512    6068.0198 
 8423000    301.22221   -6113.0719    6046.7798 
 8424000    297.38183   -6124.0065    6105.1163 
 8425000    295.92851   -6118.6933    6129.5948 
 8426000    298.20311   -6116.6313    6057.0792 
 8427000    294.88684   -6139.4191    6141.0181 
 8428000    303.65021   -6208.5919    6142.1856 
 8429000    305.22017   -6202.4578    6107.7476 
 8430000    297.36902   -6210.5008    6205.2661 
 8431000    303.21994   -6181.3749    6238.7239 
 8432000    298.71281   -6175.0768    6207.3503 
 8433000     293.6593   -6206.4147    6226.1202 
 8434000    304.40438   -6291.6712    6207.4651 
 8435000    302.28356   -6304.8202    6262.5281 
 8436000    300.12379   -6362.2974    6281.0675 
 8437000    294.78828   -6298.8453    6276.3307 
 8438000    298.46383   -6272.1465    6270.6012 
 8439000    297.49764   -6357.5741    6353.1823 
 8440000    298.75689   -6393.3376    6349.3368 
 8441000    294.63456   -6388.8276    6390.5116 
 8442000     294.3993   -6344.6979      6365.31 
 8443000    300.93065   -6402.8136    6379.9103 
 8444000    296.62849   -6425.3491    6461.5444 
 8445000     302.8584    -6532.885    6392.0398 
 8446000    300.40667     -6449.16    6409.6227 
 8447000    297.89361   -6425.8891    6454.5461 
 8448000    297.40044   -6512.7371    6526.8149 
 8449000    293.40773   -6478.0405    6527.0283 
 8450000    299.08479   -6564.3174    6496.0833 
 8451000     298.9673   -6579.4774    6496.8178 
 8452000    291.25712   -6454.0233    6549.9138 
 8453000    297.56477    -6563.049    6503.6799 
 8454000    300.94024   -6599.4529    6470.8528 
 8455000    305.70563   -6579.7368    6506.4888 
 8456000     304.2623   -6571.2976    6503.4392 
 8457000    298.27235   -6578.0422    6565.0192 
 8458000     300.9954   -6627.8442    6579.0837 
 8459000    294.23747   -6620.8302    6632.0801 
 8460000    300.44393   -6652.8537    6590.2362 
 8461000    298.64061   -6673.9792    6654.5013 
 8462000    299.51509   -6621.1421    6499.2978 
 8463000     299.5938   -6659.3996    6614.5837 
 8464000    301.85983    -6693.856    6660.1895 
 8465000    298.76698   -6683.7812    6689.9945 
 8466000    302.11842   -6745.7906     6680.439 
 8467000    296.65386   -6687.8056    6722.8689 
 8468000    301.45227    -6731.045    6763.8738 
 8469000    301.16679   -6772.5857    6711.5332 
 8470000    301.87614   -6779.5581    6740.9319 
 8471000    299.71268   -6749.6129    6780.8305 
 8472000     297.3079   -6771.6618    6774.9716 
 8473000    295.84887   -6810.8985     6808.951 
 8474000    301.19225   -6790.0173    6795.6951 
 8475000    296.78173   -6777.1786    6863.6881 
 8476000    292.94254   -6760.0101    6868.5779 
 8477000    295.05477   -6810.0939    6916.7923 
 8478000    292.14769   -6814.0435    6934.0982 
 8479000    302.28139   -6904.6721    6868.4701 
 8480000     298.4281   -6947.0991    6919.6087 
 8481000    297.80213   -6955.6853    6912.6958 
 8482000    301.89947   -6991.4817    6950.3296 
 8483000    297.53977   -6972.6541    6975.4163 
 8484000    295.74615   -6881.0862     6965.942 
 8485000    298.79518   -6979.1484    6938.9709 
 8486000      297.255   -6898.3328    6950.9733 
 8487000    300.08566    -6933.161    6894.3013 
 8488000    302.54052   -6999.9538    6889.3779 
 8489000    303.35501    -7087.262    6989.8834 
 8490000    300.92068   -7108.2311    6961.1446 
 8491000    297.35858   -7073.9914     7006.159 
 8492000    303.86103   -7051.4345    6968.9954 
 8493000    302.15461    -7061.607    6995.8957 
 8494000    298.08548   -7011.2442     7032.812 
 8495000    295.61365   -7084.5638    7073.5027 
 8496000    298.95434   -7121.1577    7074.3455 
 8497000    294.87615   -7097.3971    7149.0071 
 8498000    298.02819   -7061.7861    7125.1892 
 8499000    302.42639   -7151.7232    7022.6455 
 8500000     303.0729   -7061.6509    7052.4779 
 8501000    296.86292   -7108.8499    7115.0675 
 8502000    300.62255   -7132.4866    7017.9356 
 8503000    304.90381   -7220.6527    7047.7122 
 8504000     301.4057   -7154.7369    7066.0081 
 8505000    301.08432   -7183.9114    7064.8842 
 8506000    306.19401   -7173.0767    7044.6155 
 8507000    300.01996   -7207.9101     7106.945 
 8508000    295.03037   -7163.2364    7200.8438 
 8509000    300.69518    -7179.549     7138.465 
 8510000     305.0717   -7235.8552    7138.9424 
 8511000    304.48346   -7274.3904    7133.5696 
 8512000    298.97134   -7253.7429    7222.3508 
 8513000    301.61316   -7234.9379     7193.962 
 8514000    298.50337   -7229.3421    7204.3339 
 8515000    296.15317   -7262.5578     7237.328 
 8516000    293.23361   -7297.7294     7306.052 
 8517000    298.34638   -7321.1388    7248.8769 
 8518000    304.70481   -7347.2726    7220.6125 
 8519000    298.10329   -7327.2998    7287.4452 
 8520000    301.65378   -7320.9353    7267.1927 
 8521000    300.82801   -7290.2412      7234.93 
 8522000    299.23192   -7256.5797    7273.3023 
 8523000    292.64418   -7276.6031    7315.2986 
 8524000    297.69428    -7301.642    7307.3979 
 8525000    298.52615   -7352.2663    7301.6714 
 8526000    299.31504     -7295.53    7354.7498 
 8527000     297.4631   -7317.7797    7324.3808 
 8528000    302.52897   -7388.8713    7365.1791 
 8529000    298.91916   -7375.0936    7418.3944 
 8530000    298.02721     -7407.66    7313.6601 
 8531000    298.60408   -7357.8135    7405.1174 
 8532000    304.23297   -7460.3146    7391.6082 
 8533000    302.80482   -7404.0807    7399.1519 
 8534000    294.71841   -7441.4919    7445.3539 
 8535000    299.20247    -7474.404    7488.7902 
 8536000    302.04204   -7545.7612    7422.1106 
 8537000    303.07584   -7531.1848    7402.9251 
 8538000    301.12757   -7506.0751    7441.0148 
 8539000    298.68884   -7551.8268    7484.4266 
 8540000    305.81824   -7606.2097    7445.2586 
 8541000     295.2288   -7500.2607    7580.4918 
 8542000    298.29457   -7517.4761    7506.2934 
 8543000    297.55954   -7570.9271    7502.3214 
 8544000    301.33596   -7605.9549    7510.3041 
 8545000    297.22438    -7577.324    7566.1469 
 8546000    303.92958   -7621.3401    7541.9512 
 8547000    298.22077   -7595.9872    7566.0387 
 8548000    298.36533   -7685.7306    7644.9372 
 8549000    304.18256    -7707.557     7615.027 
 8550000    301.41971   -7731.4662    7614.4399 
 8551000    297.45099   -7769.2015    7696.4259 
 8552000    298.46224   -7778.4181    7720.4757 
 8553000    299.59789   -7725.4124    7696.1757 
 8554000    298.60722   -7793.1647    7729.8809 
 8555000    304.83314   -7802.0377    7725.7636 
 8556000    300.28899   -7823.0515    7695.5639 
 8557000     298.7363   -7778.5664    7768.6488 
 8558000    301.84793   -7838.8696    7792.1766 
 8559000    296.21719   -7787.1827    7784.3284 
 8560000    294.95195   -7793.2405    7860.3687 
 8561000    292.94253   -7850.0144    7830.4285 
 8562000    300.27634   -7897.9072    7856.2205 
 8563000    294.95828   -7821.2571    7892.6938 
 8564000    296.58436   -7954.1588    7996.4487 
 8565000     299.5811   -7883.3074    7863.5783 
 8566000    298.95295   -7935.8695    7905.8225 
 8567000     295.0328   -7932.2389    7920.1351 
 8568000    301.22519    -7957.085    7912.0649 
 8569000    298.74152   -7956.0936    7940.3691 
 8570000    298.16708   -7936.8709    7938.1354 
 8571000     295.2996   -7940.1482    7911.2428 
 8572000    300.07854   -8023.7495    7963.4337 
 8573000    299.08687   -8010.5434    8005.2942 
 8574000    301.42576   -7987.3384    7962.0583 
 8575000     294.1666    -7991.577    8024.3577 
 8576000    297.51066     -8000.94    8024.1717 
 8577000     299.7058   -8013.8322    8002.6192 
 8578000    302.31913   -8044.6403    8019.1219 
 8579000    300.51093   -8007.2089    7983.0039 
 8580000    297.43118   -8032.9565    8030.5383 
 8581000    304.55361    -8051.855    7979.2658 
 8582000    298.77248   -8034.5182    8066.4549 
 8583000     298.6157   -8063.9733    8020.3196 
 8584000    291.17241    -8030.534    8173.5616 
 8585000    301.14549   -8096.3217    8068.3147 
 8586000    304.79364   -8208.3787    8057.8992 
 8587000     305.4027   -8152.8626    8014.9544 
 8588000    298.50041   -8185.1377    8065.6976 
 8589000    301.07033   -8124.1744     8100.303 
 8590000    299.84362   -8097.5932    8064.9763 
 8591000    302.69131   -8150.2415    8024.4357 
 8592000    299.50339    -8164.858    8112.8926 
 8593000    296.80118   -8167.8258    8192.4772 
 8594000    293.88522   -8180.7302    8217.5494 
 8595000    301.32054   -8228.0128    8175.0333 
 8596000    299.74022   -8182.5561    8171.6992 
 8597000     301.2596   -8255.8208    8195.0609 
 8598000     304.1656   -8279.2723    8153.5765 
 8599000    302.64016   -8206.1625    8211.2889 
 8600000    298.09452   -8207.0482    8234.8491 
 8601000    300.80994   -8269.2011    8178.1563 
 8602000    308.07375   -8299.3145    8186.8548 
 8603000    299.35086   -8294.4795     8178.043 
 8604000    307.19073   -8330.8637    8233.1065 
 8605000    304.53925   -8398.2748    8176.7919 
 8606000    306.70087   -8382.2511    8186.5553 
 8607000    303.28282    -8317.536    8216.0975 
 8608000    296.51581   -8317.0851    8259.4157 
 8609000    303.59407   -8361.7014    8339.7576 
 8610000    301.72498   -8429.2328    8271.0022 
 8611000    301.16298   -8441.5545    8359.4934 
 8612000    309.55645   -8493.7995    8247.3319 
 8613000    303.47685   -8476.7526    8316.2598 
 8614000    303.12084   -8506.0888    8341.8338 
 8615000    307.57176   -8481.5541    8286.5256 
 8616000    302.29434   -8539.3097    8347.5752 
 8617000    305.04274   -8442.3967    8395.4024 
 8618000    300.69578    -8468.284    8405.1003 
 8619000    305.10564   -8566.7223    8454.0878 
 8620000    301.86606   -8585.7619    8445.5398 
 8621000    301.60032   -8572.6794     8491.453 
 8622000    297.89544   -8589.1789    8535.7174 
 8623000    292.66007    -8542.814     8588.271 
 8624000    289.99703   -8553.1175    8672.4991 
 8625000    301.71734   -8724.2892    8610.5147 
 8626000    296.10805   -8596.0688    8590.3561 
 8627000    297.38511   -8622.5793    8686.1832 
 8628000    299.75705   -8650.4466     8635.515 
 8629000     292.2148   -8610.1781    8645.0469 
 8630000    298.69144   -8617.3762    8665.6725 
 8631000    296.73432   -8762.4365    8712.0195 
 8632000     296.7904   -8680.3759    8747.4674 
 8633000    296.74713   -8641.8842     8675.796 
 8634000    292.25587   -8674.0009    8744.1852 
 8635000    296.78411   -8664.4491    8745.0872 
 8636000     291.1836   -8662.8329    8750.6677 
 8637000    291.10452   -8694.0847    8808.4046 
 8638000    297.96821   -8710.9548    8806.0514 
 8639000    302.03403   -8803.3898    8775.0451 
 8640000    298.66456   -8843.9716    8827.3342 
 8641000    299.40173     -8862.15    8834.1888 
 8642000    301.38408   -8864.1254    8824.1229 
 8643000    300.13279   -8885.4692    8875.1776 
 8644000    299.09232   -8908.2297    8904.9468 
 8645000     298.5645   -8946.2688    8924.2561 
 8646000    301.22145   -8982.9294    8910.9481 
 8647000    301.12689   -8974.7296    8886.2881 
 8648000    298.79391   -9008.0026    8899.8789 
 8649000    305.31618   -9040.8454    8902.8964 
 8650000    302.62758   -8997.3398    8893.3551 
 8651000    306.04454   -9003.8995    8900.2842 
 8652000    304.50407    -9050.413    8916.5826 
 8653000    304.56303   -9077.4637    8937.0175 
 8654000    303.67428   -9134.5108    9008.9463 
 8655000    301.33524   -9074.8476    8985.4898 
 8656000    305.35102   -9148.4917    9014.8184 
 8657000    299.92518    -9079.162    8985.0447 
 8658000     303.1459   -9144.2088    8998.2502 
 8659000    307.74653   -9147.9465    8994.0359 
 8660000      299.017   -9121.7842    9020.5818 
 8661000    296.59475   -9063.3596    9031.3927 
 8662000    295.78565   -9090.6606    9050.1401 
 8663000    301.94314   -9174.8233     9088.239 
 8664000     298.9162   -9134.4048    9023.2386 
 8665000    302.81382   -9132.0426    8996.2946 
 8666000     296.3696   -9151.0016    9051.2919 
 8667000     303.8768   -9261.0923    9071.2672 
 8668000     302.3216   -9257.2173    9147.5754 
 8669000    301.58606   -9251.2807    9151.6753 
 8670000     299.1971    -9229.003    9177.5793 
 8671000    298.27769    -9294.046    9169.0113 
 8672000    300.69793   -9297.1826    9244.1442 
 8673000    303.13334   -9292.9446    9247.0267 
 8674000    304.51184   -9315.0088    9218.1016 
 8675000    298.63391    -9326.217    9319.7445 
 8676000    300.96704   -9270.7347    9241.3233 
 8677000    293.62656   -9291.5267    9352.6092 
 8678000    297.03081   -9341.9806    9401.1939 
 8679000    294.50913   -9333.3627    9360.2317 
 8680000    300.68539   -9399.0097    9335.1417 
 8681000     299.7349   -9370.9223    9344.0505 
 8682000    298.39878   -9461.3042    9381.5999 
 8683000    301.98511   -9470.5074    9370.7065 
 8684000    303.38177   -9508.3188    9377.7506 
 8685000    295.32403   -9513.5624    9476.9457 
 8686000    302.86382   -9559.4728    9437.3572 
 8687000       302.53   -9530.9415    9462.6695 
 8688000    305.69443   -9604.9673    9458.9625 
 8689000    302.70025   -9620.5419    9562.5948 
 8690000    300.29066    -9586.554    9499.0719 
 8691000    303.67148   -9604.2736    9495.5123 
 8692000    295.66561   -9624.4896    9601.9605 
 8693000    298.61976   -9662.8356    9615.2692 
 8694000    300.92147   -9655.6785    9628.2765 
 8695000    299.20158   -9592.6066    9647.8709 
 8696000    300.94132   -9648.8931    9612.2669 
 8697000    296.62613   -9657.1113    9667.1517 
 8698000    302.00002   -9656.2833    9681.6315 
 8699000    295.91102   -9708.5996    9661.1448 
 8700000    298.48485   -9669.8659    9657.7062 
 8701000    298.33721   -9766.8982    9732.3143 
 8702000    302.17444   -9764.0723    9666.2139 
 8703000    299.09411    -9798.016    9758.5949 
 8704000    294.38392   -9808.4063      9827.96 
 8705000    300.57019   -9859.8716    9782.5411 
 8706000    297.13024   -9795.6514    9829.2516 
 8707000     298.7407   -9813.0257     9742.558 
 8708000    298.08962   -9833.2789    9779.4899 
 8709000    300.39164   -9774.6449    9808.7808 
 8710000    305.38758   -9829.0641    9752.1282 
 8711000    289.88476   -9766.2653    9830.4361 
 8712000     302.1712   -9895.7303    9810.1948 
 8713000    303.01555   -9813.1828    9828.3034 
 8714000     299.5181   -9889.2937      9772.47 
 8715000     303.6543   -9888.3867     9827.652 
 8716000    297.60417   -9921.7461    9858.2241 
 8717000      301.449   -9888.0946    9843.8731 
 8718000    299.51154   -9940.4825    9859.6022 
 8719000    299.87403   -9852.6479    9879.1605 
 8720000    291.81147   -9870.6657    9901.6907 
 8721000    294.45281    -9843.291    9879.9107 
 8722000    296.46271   -9856.4127    9875.3115 
 8723000    299.95935   -9937.0704    9923.6306 
 8724000    292.83927   -9903.6851    9938.7653 
 8725000    298.47897   -9869.6173    9911.4602 
 8726000    304.12377   -9960.1503    9909.9448 
 8727000    297.14467   -9955.6942    9985.0901 
 8728000    297.64836   -10015.001    9981.4765 
 8729000    295.37896   -9971.6011    10013.792 
 8730000    298.28915   -10012.061    10003.156 
 8731000    298.01296   -10021.388    10064.189 
 8732000    294.96898    -10052.87    10019.507 
 8733000    295.82447   -10016.525    10089.302 
 8734000    298.66737    -10057.55    10058.907 
 8735000     299.8915   -10128.565     10009.28 
 8736000    301.48791   -10105.457     10043.33 
 8737000    298.88646   -10180.296    10115.059 
 8738000    294.92486   -10130.241    10101.682 
 8739000    296.38313   -10192.254    10132.486 
 8740000    300.65363   -10151.594    10066.584 
 8741000    304.26442    -10127.58    10064.431 
 8742000     303.7502   -10199.362    10100.661 
 8743000    302.35374   -10183.893    10068.603 
 8744000    302.64403   -10204.561    10103.216 
 8745000    295.54076   -10195.012    10140.159 
 8746000    298.85482   -10229.486     10181.32 
 8747000    299.77003   -10262.222    10166.953 
 8748000    303.65908   -10250.502    10236.987 
 8749000    295.16053   -10256.584    10299.706 
 8750000    297.56444   -10250.793    10232.862 
 8751000    296.07474   -10272.571    10248.557 
 8752000    303.69443   -10278.846    10231.125 
 8753000    299.81534    -10349.72    10298.327 
 8754000    301.32716   -10332.096     10242.03 
 8755000    303.93644   -10377.418    10214.556 
 8756000    299.41924   -10340.386    10289.989 
 8757000    298.31209   -10300.245    10350.155 
 8758000    298.03998   -10338.598     10319.56 
 8759000    296.22024   -10272.893    10308.527 
 8760000    297.86977   -10306.423    10313.418 
 8761000    301.07986   -10324.456    10315.137 
 8762000    294.21305   -10301.862    10344.535 
 8763000    301.79741   -10383.852    10317.327 
 8764000    300.48357   -10388.627    10374.374 
 8765000    298.93122   -10403.056    10362.236 
 8766000    299.87273   -10445.939    10368.033 
 8767000    299.73512   -10457.249    10419.685 
 8768000    298.71194   -10515.952    10448.831 
 8769000    301.34051   -10470.614    10467.889 
 8770000    294.42756   -10469.571    10480.928 
 8771000    300.49463   -10495.402    10482.927 
 8772000    301.46321   -10442.517    10431.168 
 8773000    294.80987   -10460.778    10541.682 
 8774000    294.87999   -10471.315    10532.137 
 8775000    292.79486   -10434.992    10591.572 
 8776000    291.55225   -10489.403    10587.321 
 8777000    298.55227    -10542.48     10585.85 
 8778000    291.93622   -10475.342    10622.714 
 8779000     291.7286   -10495.913    10658.433 
 8780000     300.1114   -10594.511    10616.909 
 8781000    296.82537   -10622.754     10582.42 
 8782000    291.98918   -10548.413    10655.836 
 8783000    291.22113   -10562.393    10647.551 
 8784000    299.29986   -10620.553    10629.637 
 8785000    300.57111   -10638.252    10640.411 
 8786000    300.11816   -10649.758     10617.92 
 8787000    302.92363   -10733.217    10639.298 
 8788000    293.83327   -10645.147    10721.773 
 8789000    294.42115   -10726.686    10697.454 
 8790000    300.40376   -10742.422    10707.549 
 8791000    297.48347   -10711.661    10707.593 
 8792000    297.41249     -10793.3    10780.154 
 8793000    299.25191   -10863.429    10735.527 
 8794000    296.76056   -10858.281    10759.356 
 8795000    297.67138   -10857.966    10808.018 
 8796000    298.41866   -10872.356    10824.111 
 8797000    297.53161   -10906.097    10830.401 
 8798000    298.96734   -10901.348    10822.631 
 8799000    301.00026   -10983.218     10860.69 
 8800000      306.732   -11005.284    10851.005 
 8801000    299.43735   -10955.827    10900.611 
 8802000    300.39824   -10979.916    10913.841 
 8803000    298.27595   -11011.835    10923.472 
 8804000    301.08749   -10997.883    10974.713 
 8805000    300.31398   -10918.986    10987.429 
 8806000    298.12171   -11011.454    11010.187 
 8807000    298.07631   -11009.138    11006.109 
 8808000     300.9663   -11077.005    11040.005 
 8809000    299.07695   -10994.672    11025.166 
 8810000     298.2645   -11075.246    11149.817 
 8811000    289.90248   -11045.384    11125.886 
 8812000    294.68504   -11072.823    11135.413 
 8813000     299.1451   -11121.766    11173.001 
 8814000    299.42772   -11103.114    11157.011 
 8815000      302.394   -11184.669    11108.232 
 8816000    301.59502   -11166.501    11124.622 
 8817000     301.1926   -11194.508    11105.582 
 8818000    305.25114   -11171.515    11094.865 
 8819000    299.57902   -11159.981    11141.438 
 8820000    305.55365   -11183.775    11100.008 
 8821000    299.02603   -11222.845    11113.233 
 8822000    302.55722   -11177.443    11110.225 
 8823000    293.92175   -11108.525    11198.154 
 8824000    295.61218   -11183.728    11190.347 
 8825000    302.60522   -11219.321     11131.75 
 8826000    295.36808   -11114.866    11203.879 
 8827000    299.82625   -11215.682    11189.211 
 8828000    301.53416   -11211.896    11198.734 
 8829000    297.24224   -11170.173    11150.918 
 8830000    299.97039    -11275.37    11257.774 
 8831000    296.13678   -11281.401    11294.649 
 8832000     295.3767   -11224.462    11285.126 
 8833000    299.27924   -11279.956    11287.857 
 8834000    299.12889   -11314.431    11278.215 
 8835000    293.57622    -11282.79    11338.609 
 8836000    299.23797   -11353.316    11313.054 
 8837000    297.04859    -11317.39    11369.918 
 8838000    297.95746    -11333.74    11349.347 
 8839000    292.32704   -11266.862    11378.293 
 8840000    292.36066   -11281.211    11425.395 
 8841000    295.80459   -11374.479    11404.467 
 8842000    301.62676   -11468.016    11330.711 
 8843000    302.69507   -11511.848    11405.339 
 8844000    300.10465   -11463.052    11440.253 
 8845000    300.19267   -11508.247    11407.798 
 8846000    301.83615   -11522.182    11401.481 
 8847000    298.39046    -11487.18    11434.632 
 8848000    302.56297   -11507.621    11404.424 
 8849000    301.97954   -11566.145    11508.564 
 8850000    294.34414   -11477.781    11495.226 
 8851000    303.74443   -11596.443    11566.959 
 8852000    299.32593   -11493.986    11497.261 
 8853000    298.93804   -11571.842    11494.403 
 8854000    302.81051   -11528.884    11479.578 
 8855000    301.45744   -11589.759     11539.47 
 8856000    298.57762   -11601.925    11562.777 
 8857000    296.35537   -11581.712    11542.265 
 8858000    300.52111    -11663.82    11585.638 
 8859000     304.4111   -11697.276    11553.596 
 8860000    304.80699   -11725.355     11557.02 
 8861000    299.31562   -11741.239    11647.793 
 8862000    298.85301   -11713.128    11550.045 
 8863000    305.21019   -11717.491    11575.241 
 8864000    299.94213   -11696.587    11645.487 
 8865000    305.17416   -11780.611    11670.844 
 8866000    297.77812   -11760.379    11736.037 
 8867000    297.11578   -11719.686    11723.913 
 8868000    293.57825   -11722.687    11754.218 
 8869000    300.90853   -11725.375    11747.527 
 8870000    306.22192   -11837.043    11671.469 
 8871000    302.73227   -11817.107    11719.307 
 8872000    300.49136   -11842.512    11785.874 
 8873000    297.12858   -11816.912    11777.949 
 8874000    299.13334   -11805.854    11742.414 
 8875000    298.89386    -11855.93    11743.051 
 8876000    300.89178   -11821.109    11738.241 
 8877000    297.16531   -11766.159     11831.56 
 8878000    297.46536   -11826.503    11825.182 
 8879000    299.73011   -11846.936    11838.728 
 8880000    301.07543   -11779.012    11770.153 
 8881000    296.09324   -11799.289    11779.221 
 8882000    299.73101    -11883.92    11839.483 
 8883000     299.0911   -11884.469    11812.334 
 8884000    301.26966   -11968.504    11846.682 
 8885000    299.76994   -11947.438    11881.119 
 8886000    296.11814   -11912.012    11916.396 
 8887000    301.09832   -11920.507    11954.872 
 8888000    302.06284   -11999.356    11898.277 
 8889000    299.99744   -12020.926    12008.289 
 8890000     300.5804   -11987.003    11957.725 
 8891000    297.42036   -12016.553    12048.761 
 8892000    300.01814   -12062.936    11996.683 
 8893000    297.48369   -12030.927    12059.697 
 8894000    299.22306   -12005.813     12065.92 
 8895000    301.86142   -12087.819    11992.291 
 8896000    300.18264   -12064.947    11972.951 
 8897000     301.1935   -12077.453    12012.963 
 8898000    302.14744   -12136.638    11995.942 
 8899000    299.18795   -12151.595    12113.939 
 8900000    299.84692   -12124.801    12110.678 
 8901000    295.45031   -12109.115    12163.887 
 8902000    302.28052   -12126.429    12094.296 
 8903000    300.20903   -12229.182    12120.946 
 8904000    296.55738   -12182.712    12145.141 
 8905000    296.83039   -12192.034    12185.106 
 8906000     304.8901   -12292.107    12098.765 
 8907000    298.50773   -12213.935    12140.871 
 8908000     300.2704   -12204.553    12144.958 
 8909000    298.49632   -12188.364    12128.105 
 8910000    307.91564   -12247.137    12147.315 
 8911000    297.78634   -12253.145    12189.639 
 8912000    297.37678   -12223.314    12240.128 
 8913000    301.75069   -12296.052    12205.236 
 8914000    299.84071   -12317.372    12231.149 
 8915000    295.02795   -12279.292    12252.707 
 8916000    303.86894   -12354.879    12194.689 
 8917000    301.64491    -12396.11    12209.373 
 8918000    301.98762   -12366.666    12304.176 
 8919000    299.48895    -12382.16    12307.463 
 8920000     299.2927   -12403.283     12364.42 
 8921000     299.7458   -12352.941     12351.69 
 8922000    301.95723   -12349.101    12327.794 
 8923000    303.67347   -12403.282    12365.243 
 8924000     300.6653   -12459.541    12356.186 
 8925000    298.03594   -12407.962    12478.542 
 8926000    304.34035   -12488.931    12386.416 
 8927000    299.38165   -12478.828    12432.435 
 8928000    297.85198   -12429.764    12440.367 
 8929000    299.80296   -12516.138    12422.946 
 8930000    296.48381   -12401.568    12473.352 
 8931000    292.96108   -12451.466    12579.645 
 8932000    300.90477   -12557.248    12513.603 
 8933000    296.65915   -12555.968    12577.059 
 8934000    296.67861   -12562.656    12582.493 
 8935000    296.74008   -12592.215      12629.5 
 8936000    301.32038    -12653.82    12595.754 
 8937000    303.26714    -12744.91    12625.417 
 8938000    302.76968    -12737.69     12593.65 
 8939000    299.93648   -12692.363    12664.031 
 8940000    298.88179   -12795.042    12686.664 
 8941000    301.37977   -12744.755    12735.178 
 8942000    299.11872   -12754.244     12737.97 
 8943000    297.39753   -12747.771    12733.726 
 8944000    298.62269   -12818.273    12729.723 
 8945000    300.71482   -12786.561    12765.639 
 8946000    295.41329   -12814.996    12850.444 
 8947000    299.66831   -12864.865    12800.078 
 8948000    297.15503   -12773.033    12818.061 
 8949000    298.37958   -12810.506    12899.183 
 8950000    296.72405   -12862.496    12877.354 
 8951000    297.03793   -12882.481    12868.465 
 8952000    298.08205   -12940.311    12848.587 
 8953000    297.63064   -12921.526    12900.927 
 8954000    292.85536   -12908.157    12952.536 
 8955000    301.64772   -12939.514    12876.128 
 8956000    303.55942   -13031.879     12921.41 
 8957000    296.41412   -12980.759    12931.758 
 8958000    303.78748   -13030.203    12875.161 
 8959000    302.66739    -13055.55     12986.98 
 8960000    300.75199   -13031.734    12967.752 
 8961000    302.55286   -13116.477    12980.269 
 8962000    303.01947   -13199.802    13001.048 
 8963000    297.58352   -13087.108    13009.263 
 8964000    298.69236   -13125.025    13070.171 
 8965000    302.94932   -13202.695    13058.775 
 8966000    303.59181   -13199.409    13120.256 
 8967000    302.97688    -13222.84    13093.878 
 8968000    299.78818   -13229.124    13124.698 
 8969000    302.92068   -13201.944    13050.723 
 8970000    302.03854   -13201.036     13041.02 
 8971000    298.22644   -13215.215    13092.011 
 8972000    302.21881   -13216.441    13089.466 
 8973000    302.91672   -13258.185    13181.678 
 8974000    299.09581   -13257.586    13148.306 
 8975000    303.24271   -13241.326    13177.068 
 8976000    303.88983   -13321.216    13212.899 
 8977000    306.44912   -13319.265    13167.512 
 8978000    298.33527   -13337.596    13270.001 
 8979000    303.66897   -13353.158    13249.401 
 8980000    297.11672   -13278.366     13305.31 
 8981000    304.85971     -13348.8    13144.286 
 8982000    302.70504   -13364.769    13334.409 
 8983000    300.16368   -13441.755        13318 
 8984000    306.58677   -13470.658    13238.552 
 8985000    298.87965   -13410.857    13284.857 
 8986000    302.12728   -13414.044    13350.891 
 8987000    300.53473   -13293.746    13347.634 
 8988000    302.55101   -13446.167    13320.182 
 8989000    301.36827   -13453.946    13341.459 
 8990000    300.99342   -13427.377    13362.147 
 8991000    305.17373   -13495.653    13320.696 
 8992000    300.47993   -13468.218    13359.701 
 8993000    303.98681   -13506.535    13395.428 
 8994000    305.60274   -13423.831    13367.214 
 8995000    296.87003   -13398.081    13458.181 
 8996000    295.65294   -13408.833    13476.873 
 8997000    297.13801   -13469.812     13515.52 
 8998000     299.9416   -13482.018    13464.807 
 8999000    292.70822   -13484.199    13499.929 
 9000000    298.61416   -13473.105    13463.214 
 9001000    296.81736   -13521.483    13577.566 
 9002000    297.45142   -13545.024    13490.575 
 9003000    298.37352   -13565.242    13512.169 
 9004000      299.818   -13608.576    13589.139 
 9005000    303.90195   -13653.747    13489.548 
 9006000    295.48084   -13592.408    13600.137 
 9007000    297.08919   -13650.439    13614.201 
 9008000    300.80445   -13628.337    13623.344 
 9009000     298.7123   -13627.521    13613.874 
 9010000    297.51841   -13669.055    13646.544 
 9011000    300.87116    -13667.46    13623.861 
 9012000    302.95095   -13700.549    13584.648 
 9013000     298.1337   -13698.005    13659.084 
 9014000    304.95823   -13770.653    13662.885 
 9015000    304.83364   -13778.187    13694.496 
 9016000    300.77418   -13777.407     13670.39 
 9017000    298.83914   -13782.895    13756.983 
 9018000     302.4266   -13783.116    13693.367 
 9019000    303.28464   -13873.576    13730.947 
 9020000     299.4601   -13887.047     13760.01 
 9021000    300.32333   -13829.488    13756.604 
 9022000    304.75041   -13909.814    13778.551 
 9023000    296.46315   -13829.979    13854.352 
 9024000    296.75927   -13839.041    13815.344 
 9025000    304.26249   -13872.218    13848.292 
 9026000    296.36928   -13893.867    13813.287 
 9027000    294.62599   -13881.525    13891.153 
 9028000    299.92226    -13905.65    13826.343 
 9029000    298.45369   -13949.624    14007.762 
 9030000    298.17221   -13917.908    13940.295 
 9031000    298.55552   -13967.714      13969.7 
 9032000    296.65829   -13971.102    14032.422 
 9033000    295.93396   -13992.192    14029.875 
 9034000    297.57124   -13991.012    14015.421 
 9035000    303.68424   -14059.045    14051.157 
 9036000    295.12684   -14147.178    14144.705 
 9037000    303.90808     -14095.5    14127.807 
 9038000     292.4126   -14040.817    14111.704 
 9039000    297.73262   -14007.622    14044.429 
 9040000     300.9666   -14123.237    14165.228 
 9041000     294.1255   -14181.646    14237.271 
 9042000    294.76366   -14165.645    14196.817 
 9043000    300.68634    -14176.27    14137.607 
 9044000    297.23558   -14213.239    14187.082 
 9045000    295.98717   -14168.999    14229.216 
 9046000    299.37155   -14217.953     14241.77 
 9047000    298.68965   -14199.838    14238.374 
 9048000    295.10295   -14175.671    14211.998 
 9049000    295.42939   -14202.043    14228.497 
 9050000    295.84391   -14150.209    14224.636 
 9051000    294.30723   -14211.259    14225.076 
 9052000    297.16412   -14256.091    14309.601 
 9053000    300.90123   -14271.998    14230.583 
 9054000    298.88412   -14230.339    14267.031 
 9055000    302.40106   -14235.104    14227.365 
 9056000    303.12568     -14246.6    14250.531 
 9057000    296.20396   -14285.383    14241.244 
 9058000     296.0375   -14293.986    14253.331 
 9059000    297.50398   -14312.052    14260.572 
 9060000    298.54812   -14268.727     14274.19 
 9061000    297.16779    -14304.08    14263.553 
 9062000    298.04453   -14285.628    14278.923 
 9063000    303.91456   -14291.431     14277.71 
 9064000    297.85737   -14297.192    14306.284 
 9065000    305.49804   -14363.386     14283.75 
 9066000    307.93276   -14416.183    14311.328 
 9067000     295.0339   -14362.225    14312.275 
 9068000    301.61331   -14411.629    14336.378 
 9069000    304.74612   -14474.728    14320.441 
 9070000    300.71833   -14511.179    14376.236 
 9071000    298.25029   -14461.347    14377.247 
 9072000    300.72583   -14505.696    14383.818 
 9073000    300.04567   -14438.911     14432.14 
 9074000    300.86083   -14443.544    14421.199 
 9075000    298.90752   -14437.071    14437.435 
 9076000    297.71974   -14443.342    14448.939 
 9077000    301.73965   -14458.543    14448.708 
 9078000    301.99019   -14525.516    14453.349 
 9079000    299.30945   -14527.747     14473.09 
 9080000    304.46767   -14505.384    14429.545 
 9081000    297.92665   -14535.104    14482.053 
 9082000    301.12027   -14549.318    14481.299 
 9083000    301.58726    -14588.77    14537.305 
 9084000      303.088     -14642.5    14538.715 
 9085000    297.94432   -14607.085    14562.937 
 9086000    296.16701   -14610.005    14685.754 
 9087000     300.5112   -14707.448    14619.521 
 9088000    295.85658   -14692.689    14729.863 
 9089000    300.26314   -14694.435    14669.685 
 9090000    299.62688   -14725.377    14700.134 
 9091000    300.56099   -14740.874    14732.775 
 9092000    296.22883   -14731.217    14742.183 
 9093000    297.55582    -14759.28    14725.177 
 9094000    300.10029   -14803.753    14783.275 
 9095000    297.92329    -14804.09    14673.195 
 9096000    304.79268   -14843.328    14682.087 
 9097000     302.0016   -14876.071    14720.431 
 9098000    302.61878   -14855.955    14762.172 
 9099000    302.42311   -14870.012     14734.34 
 9100000    301.70992   -14864.723    14744.846 
 9101000    301.30756   -14906.513    14824.531 
 9102000    302.86005   -14951.919    14816.595 
 9103000    303.57722   -14947.039    14896.717 
 9104000    307.66704   -15010.979    14846.127 
 9105000    302.36899    -14959.92    14870.332 
 9106000    304.82117    -15014.56    14899.601 
 9107000    302.03599   -15040.102    14840.266 
 9108000     298.8395   -14964.691    14907.794 
 9109000    299.77782   -14948.975    14890.125 
 9110000    300.10401    -14989.15    14900.361 
 9111000    300.40449   -14989.142    14935.786 
 9112000    297.99353   -14994.904     14917.26 
 9113000    298.22773   -15027.623    14968.292 
 9114000    295.39498   -15004.975    15021.509 
 9115000    303.54408   -15068.402    14956.425 
 9116000    300.17172   -15033.945    14930.976 
 9117000    297.11968   -15049.641    15075.126 
 9118000    305.55769   -15054.549    14979.921 
 9119000    297.32484    -15155.23    15061.858 
 9120000    301.29099   -15171.755    15051.584 
 9121000    298.21033   -15110.964    15050.974 
 9122000    299.41101   -15149.302    15074.955 
 9123000    302.95702   -15107.878    15048.526 
 9124000    295.57944   -15146.913    15093.741 
 9125000    299.78775   -15105.992     15054.81 
 9126000    295.43653    -15141.46     15046.18 
 9127000    299.59233    -15197.37     15130.18 
 9128000    296.21347   -15179.351    15186.806 
 9129000    293.10134   -15189.466    15183.583 
 9130000    296.82045   -15217.248    15150.974 
 9131000    291.00794    -15155.37    15215.232 
 9132000    298.36471     -15165.8    15231.856 
 9133000    298.59427   -15149.765     15193.21 
 9134000     298.9336   -15165.064    15189.908 
 9135000    299.27495   -15200.346    15137.291 
 9136000    296.61878   -15253.061    15206.081 
 9137000    297.80995   -15267.404    15293.057 
 9138000    296.06159   -15244.259    15248.068 
 9139000    295.01254   -15297.456    15291.697 
 9140000    296.13077   -15276.604    15314.272 
 9141000    303.45452   -15386.376      15228.4 
 9142000    307.09074   -15348.792    15264.126 
 9143000    302.60879    -15339.86    15260.878 
 9144000    296.99762   -15374.639    15358.808 
 9145000     296.6503   -15385.531    15274.218 
 9146000    300.04013   -15428.229    15293.868 
 9147000    302.10704   -15441.633    15335.612 
 9148000    306.24315   -15444.574    15365.771 
 9149000    297.56802   -15382.041    15337.283 
 9150000    298.85916   -15430.231    15419.977 
 9151000    298.69314   -15489.721    15424.349 
 9152000    304.18271   -15534.161      15446.8 
 9153000    300.65785   -15497.233    15447.729 
 9154000    296.26481   -15485.173    15523.263 
 9155000    303.74653    -15567.69    15481.992 
 9156000    296.03677   -15534.873      15567.1 
 9157000    298.42587   -15548.701    15535.085 
 9158000    299.63757   -15572.562    15478.453 
 9159000    302.16001   -15634.803    15549.657 
 9160000    305.86754   -15667.783    15527.383 
 9161000    298.80861   -15636.748    15586.457 
 9162000    301.36271   -15668.729    15586.669 
 9163000    297.28992   -15631.928    15552.804 
 9164000    299.30044    -15563.26     15548.44 
 9165000    300.53884   -15666.323    15640.894 
 9166000    296.95434   -15681.011    15705.671 
 9167000    300.82987   -15690.364    15660.948 
 9168000    294.23149   -15717.815    15717.674 
 9169000    299.95002   -15732.493    15709.559 
 9170000    295.57641   -15710.821    15780.409 
 9171000    299.70561   -15751.744    15787.078 
 9172000     299.7312   -15772.256    15784.972 
 9173000    295.80626   -15754.725    15825.436 
 9174000    300.09719   -15844.642    15815.092 
 9175000    297.22807   -15815.093    15841.699 
 9176000    295.46951   -15797.825    15829.254 
 9177000    294.83752   -15872.357    15893.093 
 9178000    296.23062   -15851.094    15825.646 
 9179000    295.14709   -15798.346    15897.135 
 9180000    303.66874   -15908.818    15847.014 
 9181000    302.21743   -15889.698    15831.632 
 9182000    295.01445   -15907.795    15857.135 
 9183000    299.43449   -15950.594    15883.033 
 9184000    303.99661    -15964.17    15864.578 
 9185000    293.87119   -15919.221    15905.538 
 9186000     300.5426   -16004.916    15939.477 
 9187000    297.27723    -15966.12    15961.995 
 9188000    294.57161   -15999.037    16019.507 
 9189000    297.56084   -15985.032     15985.03 
 9190000    299.47033   -16066.533    16025.915 
 9191000    296.81758   -16050.877    16025.382 
 9192000    301.30822   -16089.744    16038.337 
 9193000    292.91717   -16073.474    16092.767 
 9194000    297.50311   -16122.843    16110.516 
 9195000    304.41492   -16157.493    16084.611 
 9196000    297.83724   -16238.034    16177.682 
 9197000    302.44449   -16219.914    16062.721 
 9198000    296.96357   -16165.122    16140.964 
 9199000     298.3775   -16209.403    16179.054 
 9200000    300.00731   -16202.378    16213.316 
 9201000    304.29065   -16231.937    16168.884 
 9202000    300.29082   -16276.552    16205.644 
 9203000    308.03728   -16320.376     16177.64 
 9204000    302.68815    -16279.32    16143.026 
 9205000    300.68369   -16265.389    16233.393 
 9206000    301.00535   -16259.334    16196.476 
 9207000    299.09541   -16290.319    16205.749 
 9208000    299.00255   -16257.987    16235.183 
 9209000    295.35484   -16253.183    16254.049 
 9210000    302.25814   -16319.743    16238.895 
 9211000    304.45264   -16358.564    16184.664 
 9212000    298.09194   -16349.094    16297.057 
 9213000    307.57789   -16373.097    16212.772 
 9214000    307.25688   -16402.913    16254.754 
 9215000    308.15495   -16352.495    16272.358 
 9216000    292.04693   -16324.807    16382.581 
 9217000    296.16674   -16315.353    16371.286 
 9218000    301.27552   -16394.656    16352.497 
 9219000    301.06818    -16378.36      16313.9 
 9220000    299.92718   -16360.543    16353.832 
 9221000    299.10594    -16350.26    16343.519 
 9222000    298.64476   -16427.522    16367.446 
 9223000    298.91624   -16410.213    16378.417 
 9224000    299.22285   -16416.914     16428.96 
 9225000    299.19938   -16457.659     16367.75 
 9226000     300.1858   -16444.641     16370.25 
 9227000    296.85555   -16406.915    16395.119 
 9228000    297.00336   -16481.666    16429.685 
 9229000    307.36593   -16522.484    16388.667 
 9230000    300.24302   -16500.754    16413.734 
 9231000    304.74323   -16560.875    16447.185 
 9232000    303.63056   -16613.772      16487.3 
 9233000    297.52093   -16596.567    16493.628 
 9234000    303.43083   -16612.152    16469.974 
 9235000    300.45741   -16667.161    16496.259 
 9236000    301.41366   -16673.446    16547.262 
 9237000    302.22821   -16583.586     16516.05 
 9238000    303.20657   -16653.885    16546.711 
 9239000    296.03025   -16600.809    16574.934 
 9240000    295.78068    -16655.18    16602.281 
 9241000    303.40487   -16700.297    16603.051 
 9242000    307.39741   -16702.114    16593.077 
 9243000     297.7609   -16643.961    16679.391 
 9244000    302.03829    -16785.73    16690.759 
 9245000    297.00869   -16692.924    16751.961 
 9246000    293.97646     -16653.4    16686.962 
 9247000    297.08298   -16664.859     16710.05 
 9248000    294.43901    -16661.24    16677.643 
 9249000    297.19155    -16639.79    16708.403 
 9250000    299.91375   -16671.278    16690.711 
 9251000    293.34377   -16631.829    16686.272 
 9252000    299.43471   -16683.823    16739.844 
 9253000    302.88795   -16763.759    16714.735 
 9254000    296.51241   -16734.141    16788.874 
 9255000    294.70028   -16697.651    16759.678 
 9256000    293.49789   -16676.731    16767.456 
 9257000      290.027   -16741.587    16832.593 
 9258000    297.93578   -16752.409    16793.246 
 9259000     293.9512   -16768.449    16838.303 
 9260000    296.67929   -16838.616     16853.27 
 9261000    298.05039   -16816.683    16840.928 
 9262000    298.38705   -16883.654    16842.563 
 9263000    294.88555   -16817.003     16819.34 
 9264000     299.0617   -16816.932    16826.937 
 9265000    302.16613   -16912.546    16808.337 
 9266000    299.24282    -16902.07    16931.914 
 9267000    295.93034   -16928.758    16952.145 
 9268000    296.52546   -16861.355    16899.896 
 9269000    302.01076   -16972.627    16908.226 
 9270000    298.15723   -16950.284    16932.473 
 9271000    305.99847   -17073.557    16953.965 
 9272000    303.63439   -17078.507    16897.578 
 9273000    301.78105   -17065.125    16989.129 
 9274000    300.73154   -17038.305    17033.824 
 9275000    296.76944   -17033.333    17040.221 
 9276000    296.18072   -17027.897    17064.937 
 9277000    296.66013   -17080.985    17064.117 
 9278000    300.41102   -17124.645    17048.127 
 9279000    301.70908   -17169.991     17070.27 
 9280000    302.01487   -17129.126    17144.979 
 9281000    295.18702   -17274.224    17178.513 
 9282000    301.07649   -17282.515    17132.503 
 9283000    297.15036   -17258.755    17197.181 
 9284000    296.90507   -17257.096    17142.942 
 9285000    298.37283   -17185.268    17227.489 
 9286000    300.86175   -17235.357     17181.16 
 9287000    301.49089   -17275.717    17250.552 
 9288000    296.54552    -17230.02    17254.604 
 9289000    291.50272   -17274.104    17291.499 
 9290000    299.27404   -17254.265    17230.093 
 9291000    302.65903   -17283.409    17262.597 
 9292000    297.50611   -17251.643    17311.436 
 9293000    301.55628   -17333.136    17230.435 
 9294000    297.94707   -17315.504    17232.825 
 9295000    302.07175    -17314.37     17166.36 
 9296000    294.93957   -17246.297    17307.117 
 9297000    299.37054   -17302.757    17270.871 
 9298000    294.90274   -17232.849     17317.71 
 9299000    296.16841   -17291.607    17322.955 
 9300000    290.72942   -17304.306     17394.88 
 9301000    296.93878   -17322.179    17330.825 
 9302000    299.07049   -17287.031    17280.219 
 9303000    297.05668    -17369.94    17372.046 
 9304000     297.3974   -17428.767    17398.321 
 9305000     296.8034   -17394.665    17425.461 
 9306000    298.61957   -17429.293    17483.439 
 9307000    298.36218   -17443.168    17490.891 
 9308000    292.73453   -17454.854    17554.914 
 9309000    297.45138   -17473.966    17489.006 
 9310000    294.30069   -17464.553    17476.558 
 9311000    298.12992   -17556.399    17507.861 
 9312000    300.65646   -17619.119     17475.74 
 9313000    301.20894   -17640.466    17551.974 
 9314000    300.57878    -17618.41    17558.055 
 9315000    299.69757    -17713.82    17649.978 
 9316000    299.98954   -17665.051    17596.616 
 9317000    302.60141   -17722.541    17669.097 
 9318000    303.99644    -17762.04     17695.49 
 9319000    297.69474    -17693.15    17669.513 
 9320000     300.1558   -17644.182    17642.728 
 9321000     296.4511   -17687.614    17695.506 
 9322000    298.08767   -17703.919    17648.265 
 9323000    299.81645   -17656.623    17655.848 
 9324000     297.4859   -17738.135    17669.295 
 9325000    297.89471    -17729.44    17659.586 
 9326000    300.01408   -17736.285    17685.301 
 9327000    304.56755   -17802.102    17669.579 
 9328000     296.9207   -17774.538     17793.75 
 9329000    295.16208   -17808.274     17785.18 
 9330000    298.30544   -17802.254    17752.372 
 9331000    292.87342     -17738.2    17824.622 
 9332000    293.82435   -17712.532    17765.977 
 9333000    297.57436   -17830.791    17812.041 
 9334000    294.32932   -17789.559    17888.508 
 9335000     295.7549   -17842.123    17923.428 
 9336000    291.64756   -17799.021    17913.814 
 9337000     297.5017   -17836.294    17918.311 
 9338000    297.62559   -17866.271    17888.945 
 9339000     294.9907   -17914.198    17862.303 
 9340000     300.0468    -17862.05    17892.634 
 9341000    300.66706   -17938.893    17841.033 
 9342000    300.39009   -17956.956    17921.755 
 9343000    299.58367   -17965.019    17957.932 
 9344000    296.42753   -17978.408    17967.363 
 9345000    296.41152   -17970.518    17957.208 
 9346000    296.55341   -17958.721    17960.914 
 9347000    300.96152   -18042.517    17980.045 
 9348000     295.0879   -17982.814    18030.098 
 9349000     298.5218   -18067.529    18075.698 
 9350000    296.57863   -18008.122    18018.685 
 9351000    301.26841   -18031.933    18026.815 
 9352000    297.55834   -18010.114    18062.382 
 9353000    298.79699    -18048.05    18096.065 
 9354000    292.93778    -18116.94    18080.861 
 9355000    297.02677   -18091.699    18114.686 
 9356000    296.93214   -18096.697    18059.187 
 9357000    297.17094   -18124.373    18165.664 
 9358000    302.58458   -18237.378    18094.159 
 9359000    303.69846   -18166.411    18111.094 
 9360000    302.23675   -18160.898    18120.973 
 9361000    303.56114   -18203.417    18116.462 
 9362000    303.10135   -18230.415    18167.313 
 9363000    300.30882   -18253.744    18164.638 
 9364000    303.88373   -18272.495    18151.966 
 9365000    298.06527   -18334.248    18220.844 
 9366000    305.63801   -18364.511    18174.063 
 9367000    302.24205    -18353.44    18257.846 
 9368000    302.39463    -18373.77    18314.614 
 9369000    302.94809   -18408.454    18359.758 
 9370000     308.0577   -18471.367    18271.689 
 9371000    303.89219   -18401.899    18283.634 
 9372000    300.42946   -18456.589    18361.688 
 9373000    297.04672   -18403.625    18361.279 
 9374000     296.3381   -18406.421    18374.188 
 9375000    300.70962   -18391.562    18373.127 
 9376000    299.62452   -18445.131     18333.85 
 9377000    299.12712   -18455.628     18409.76 
 9378000     298.2518   -18425.903    18396.382 
 9379000    297.46453   -18462.536    18387.635 
 9380000    304.23135   -18529.263    18364.026 
 9381000    303.12189   -18518.886    18378.426 
 9382000     298.9573   -18521.559    18451.183 
 9383000    296.20534   -18509.562    18495.429 
 9384000    306.45878   -18596.171    18512.441 
 9385000    297.03345   -18518.493    18556.306 
 9386000     302.5361   -18582.011    18527.605 
 9387000    295.30442   -18524.233    18532.882 
 9388000    296.14286   -18471.021    18551.555 
 9389000    296.30876   -18571.179    18531.328 
 9390000    301.64348   -18594.317    18540.547 
 9391000    298.40819   -18553.928    18548.217 
 9392000    296.49175   -18617.496    18610.917 
 9393000    296.47188   -18592.888    18609.501 
 9394000    302.08693    -18668.05    18546.058 
 9395000     308.1474   -18713.456    18526.784 
 9396000    299.59304   -18703.787    18663.329 
 9397000    298.45676   -18626.313    18623.294 
 9398000     299.3524   -18733.016     18671.15 
 9399000     293.4424   -18765.723    18724.368 
 9400000    299.73302   -18755.836     18671.02 
 9401000     304.9497   -18751.166    18592.057 
 9402000    294.99461   -18649.232    18655.087 
 9403000    297.37604   -18713.934    18720.053 
 9404000    304.87682   -18835.345    18716.267 
 9405000    300.02867   -18749.243    18710.036 
 9406000    299.27778   -18805.786    18767.527 
 9407000    301.54479   -18840.929     18711.12 
 9408000    305.82541   -18871.688    18766.143 
 9409000    301.84195   -18863.454    18677.238 
 9410000    297.68454   -18860.816    18774.717 
 9411000    300.25052    -18807.72    18779.233 
 9412000    302.31983    -18882.26    18785.053 
 9413000    299.21506   -18893.759    18845.756 
 9414000    304.55185   -18903.693    18866.822 
 9415000    302.89218   -18924.376    18881.949 
 9416000    301.16725   -18931.669    18830.183 
 9417000    301.36931   -18919.033    18859.523 
 9418000    300.26269   -18963.527     18868.38 
 9419000    298.91143   -18962.964    18901.335 
 9420000    295.62163   -18951.597    18957.425 
 9421000    305.23171   -19030.522    18905.928 
 9422000    297.21239   -18956.401    18917.584 
 9423000    302.36295    -18966.11    18885.372 
 9424000    300.49964   -19011.492    18930.685 
 9425000    300.11153    -19006.29    18941.228 
 9426000    304.39153   -19084.043    18965.861 
 9427000    303.11845   -19057.009     19036.38 
 9428000    301.01237    -19088.89    19017.445 
 9429000    296.93103   -19112.322    19098.611 
 9430000    301.69712   -19153.667    19069.958 
 9431000    300.86725   -19213.547    19087.507 
 9432000    298.93741   -19167.717    19077.524 
 9433000    295.40975   -19133.931    19136.514 
 9434000    300.46975   -19179.029    19123.065 
 9435000    301.77157   -19245.753    19119.322 
 9436000    300.89335   -19268.572    19155.528 
 9437000    298.73306     -19212.5    19126.655 
 9438000    301.93834   -19270.706    19167.348 
 9439000    301.06321   -19323.955     19242.61 
 9440000    300.44847   -19366.362    19274.875 
 9441000    306.08232   -19371.723    19300.648 
 9442000    303.00946   -19354.023    19223.652 
 9443000    301.78401   -19411.751    19325.712 
 9444000    308.85382    -19428.85    19275.831 
 9445000    301.43807   -19391.849     19295.89 
 9446000    302.25754   -19397.217    19279.876 
 9447000    299.56818   -19453.709    19359.069 
 9448000    295.04471   -19401.887    19382.722 
 9449000    301.91593   -19410.928    19339.679 
 9450000    302.32624   -19437.972    19343.365 
 9451000    305.90499   -19476.317    19405.148 
 9452000    303.43404    -19456.71     19384.99 
 9453000    298.56627   -19520.704    19426.216 
 9454000    300.46731   -19527.116    19400.603 
 9455000    299.69095   -19533.305    19391.969 
 9456000    297.61311   -19573.714    19473.283 
 9457000    297.08456   -19609.435    19525.536 
 9458000    297.73295   -19566.885    19556.125 
 9459000    299.32037   -19566.806     19531.02 
 9460000    297.90768    -19556.52    19586.395 
 9461000    296.73122   -19560.976    19586.391 
 9462000    298.17563   -19577.181    19599.311 
 9463000    297.06255   -19626.084     19642.32 
 9464000    297.38554   -19602.202    19653.026 
 9465000    299.20568   -19656.278    19624.033 
 9466000    297.42022   -19637.895    19630.481 
 9467000    298.45743   -19721.437     19603.27 
 9468000    301.50022   -19748.967    19681.438 
 9469000    293.53772   -19792.428    19787.804 
 9470000    301.20337   -19747.281      19691.1 
 9471000     308.7559   -19793.563    19655.637 
 9472000    299.19587   -19776.353    19762.734 
 9473000    300.63421   -19733.395     19777.47 
 9474000    295.34179   -19725.691    19795.369 
 9475000    297.18953   -19814.611    19802.752 
 9476000    298.36808     -19792.9    19896.049 
 9477000    294.25475   -19723.877    19931.741 
 9478000    292.94857    -19747.69    19911.375 
 9479000    295.16689   -19830.419    19835.755 
 9480000    297.34719   -19898.351     19912.22 
 9481000    290.75019   -19818.516    19917.539 
 9482000    295.76135   -19883.736    19923.388 
 9483000    300.89081   -19837.907    19857.227 
 9484000    297.69618   -19888.614    19868.444 
 9485000    301.22072    -19989.02    19874.384 
 9486000    295.47214   -19886.641    19980.412 
 9487000     299.6857   -19948.668    19928.615 
 9488000    294.69044   -19917.133    19998.186 
 9489000    296.20908   -19955.848    19976.546 
 9490000    292.55025   -19976.748    20004.566 
 9491000    295.79538   -19986.526    20014.261 
 9492000    292.47256   -20008.817    20067.248 
 9493000    299.60631   -20011.568      20019.7 
 9494000    293.58571   -20007.215    20108.035 
 9495000    294.86966   -20015.327    20025.493 
 9496000    300.99863   -20091.659    20028.729 
 9497000    293.53819   -19992.728    20103.995 
 9498000    299.11687   -19954.581    20007.621 
 9499000    300.46473    -20120.21    20045.627 
 9500000    297.21167   -20037.431    20101.447 
 9501000     304.2661   -20100.779    20040.537 
 9502000    292.69247   -20099.819    20168.231 
 9503000    299.95891   -20148.765    20104.952 
 9504000    299.30695   -20186.895    20164.711 
 9505000    299.26069   -20157.883    20155.309 
 9506000    300.54877   -20223.968    20204.632 
 9507000    298.79413   -20233.165    20243.991 
 9508000    302.26897   -20287.446    20166.368 
 9509000    296.83134    -20260.42    20221.556 
 9510000    299.83009   -20226.029    20220.215 
 9511000    298.02019   -20272.307     20229.46 
 9512000     303.7797   -20346.793    20210.075 
 9513000    304.32477   -20359.811    20191.915 
 9514000    301.58945   -20374.591    20315.923 
 9515000    301.54632   -20384.018    20255.634 
 9516000    299.36559    -20361.05    20336.616 
 9517000    303.39305   -20436.557    20268.688 
 9518000    299.47961    -20377.78    20329.662 
 9519000    303.53333   -20407.439    20312.106 
 9520000    300.35631   -20391.644    20367.673 
 9521000    298.14333   -20497.461    20415.803 
 9522000     305.6667   -20538.625    20348.251 
 9523000    299.78668   -20495.272    20417.675 
 9524000    303.79032   -20584.742    20419.869 
 9525000     297.7474   -20627.768    20461.985 
 9526000    302.61695   -20580.256    20435.519 
 9527000    305.57517   -20592.012    20446.094 
 9528000    303.36023    -20561.84    20406.764 
 9529000     301.2054   -20567.607    20479.168 
 9530000    302.81207   -20529.662    20439.469 
 9531000    302.31759   -20621.945    20525.082 
 9532000    303.40294   -20643.045    20492.652 
 9533000    302.86512   -20602.222    20489.642 
 9534000    303.89532   -20658.699    20525.284 
 9535000    299.24855   -20666.426    20559.781 
 9536000    303.81689   -20687.194    20524.759 
 9537000    301.79423   -20725.153    20566.099 
 9538000    307.14062    -20775.41    20579.862 
 9539000    304.18352   -20750.595    20592.642 
 9540000    304.34691   -20743.809    20649.809 
 9541000    305.85983   -20747.591    20615.184 
 9542000    300.47301    -20704.43    20602.819 
 9543000    299.24206   -20755.589    20680.859 
 9544000    300.27653   -20785.093    20694.906 
 9545000    298.40822   -20827.734    20730.178 
 9546000    294.28366   -20788.024     20790.82 
 9547000    299.44497   -20847.961    20732.085 
 9548000    296.74708   -20829.348    20826.644 
 9549000    296.74426   -20797.463    20791.158 
 9550000    299.10033    -20828.13    20833.416 
 9551000    298.96742   -20819.726    20839.161 
 9552000    296.37245   -20893.005    20806.085 
 9553000    298.48034    -20858.04    20795.971 
 9554000    301.99371   -20851.117    20783.646 
 9555000    296.64151   -20858.183    20830.157 
 9556000     299.9252   -20929.007    20854.966 
 9557000    305.33811   -20961.964    20828.819 
 9558000    302.10828    -20918.57    20797.423 
 9559000    300.90452    -20946.14    20817.896 
 9560000    302.82717   -20928.012     20917.01 
 9561000    293.01047   -20958.748    20952.638 
 9562000    298.83092   -20967.707    20969.736 
 9563000    298.97834   -20993.515    20976.739 
 9564000    300.92331   -21015.556     21014.14 
 9565000    296.97086   -20968.618    21005.547 
 9566000    302.67579   -21103.711    20997.079 
 9567000    303.36948   -21043.591    20976.807 
 9568000    301.26034   -20997.135    20987.236 
 9569000    305.20465   -21035.688    20949.061 
 9570000     306.2178   -21166.394    21003.188 
 9571000    306.88569   -21183.113    20976.219 
 9572000    302.36841   -21162.799    20999.285 
 9573000    302.97508   -21169.377    21069.614 
 9574000    302.01972   -21233.535    21071.117 
 9575000    303.17232   -21216.255    21111.769 
 9576000    305.55826   -21196.911    21121.551 
 9577000    302.64617   -21247.814    21140.724 
 9578000    295.65321   -21180.784    21198.856 
 9579000    294.28016   -21115.802    21144.194 
 9580000    301.41915   -21196.782    21166.692 
 9581000    293.64907    -21230.33    21242.734 
 9582000    295.98927   -21229.783    21223.632 
 9583000    301.08218   -21237.476    21155.956 
 9584000    295.59116   -21254.446    21242.632 
 9585000    299.23586   -21201.659    21214.438 
 9586000    297.76222   -21197.616     21251.71 
 9587000    299.16597   -21248.395    21244.233 
 9588000    300.91199   -21304.105    21258.056 
 9589000    303.64471   -21333.758    21220.838 
 9590000    303.07768   -21320.644    21294.177 
 9591000    297.10859   -21253.837    21206.219 
 9592000    299.20689   -21302.957    21256.591 
 9593000    298.13173   -21363.829    21314.604 
 9594000    295.83334   -21351.764    21383.164 
 9595000     300.1511   -21424.119    21409.954 
 9596000    300.49919   -21378.557     21390.48 
 9597000    296.49682   -21361.666    21386.082 
 9598000    299.78437   -21437.037     21452.55 
 9599000    298.75472   -21454.957    21450.439 
 9600000    302.08159    -21492.83    21474.399 
 9601000    295.80109   -21427.109    21419.661 
 9602000    295.50729   -21489.834    21500.563 
 9603000    292.81327   -21429.982    21505.214 
 9604000     293.4722   -21407.941     21511.37 
 9605000    296.81753   -21402.492    21517.241 
 9606000     300.0921   -21547.043     21532.14 
 9607000    297.37775   -21550.158    21620.346 
 9608000    296.28654    -21606.44     21612.16 
 9609000    298.75144   -21615.393    21602.803 
 9610000    300.04709   -21590.469    21561.822 
 9611000    301.11478   -21676.177    21637.103 
 9612000    296.83148   -21603.674    21610.362 
 9613000    301.82945   -21663.904    21585.757 
 9614000    300.73509   -21694.081    21537.817 
 9615000    299.46723    -21660.58    21593.635 
 9616000    299.81096   -21727.527    21641.379 
 9617000    297.04543   -21723.306    21703.885 
 9618000     300.4371   -21738.974    21656.825 
 9619000    298.50372   -21782.499    21718.456 
 9620000    303.47148   -21824.948    21729.955 
 9621000     300.2802   -21796.956    21759.695 
 9622000    299.73428   -21841.839    21736.069 
 9623000    296.11368   -21901.319     21836.23 
 9624000    299.88706   -21778.365     21769.08 
 9625000    302.70163   -21784.438     21737.44 
[...]
47619000    301.29599   -525291.36    525232.49 
47620000    300.40099   -525262.81    525248.45 
47621000     302.5542   -525343.17    525215.08 
47622000    300.99018   -525318.75    525284.32 
47623000    304.20349   -525301.76    525240.81 
47624000    298.69012   -525276.17    525275.56 
47625000    302.72144   -525304.39    525267.19 
47626000    298.51918   -525303.75    525326.06 
47627000    302.90208    -525340.5    525339.73 
47628000    302.79496   -525395.77    525368.54 
47629000    300.10539   -525403.81    525422.14 
47630000    305.82254   -525415.87    525338.95 
47631000    298.23354   -525451.94    525384.21 
47632000     294.2317   -525366.27    525471.85 
47633000    298.19962    -525442.8    525485.69 
47634000    302.56566   -525446.72    525478.63 
47635000    300.56681   -525459.86    525559.32 
47636000    297.19705   -525553.42    525534.68 
47637000    295.46504   -525494.31    525538.67 
47638000    300.10381   -525551.67    525570.24 
47639000    293.51749   -525531.57     525623.5 
47640000    298.64369   -525647.67    525654.45 
47641000    300.69252   -525584.15    525653.85 
47642000    298.48859   -525597.48    525634.82 
47643000    298.68095   -525638.57     525638.3 
47644000    299.55566   -525661.17    525639.85 
47645000    292.11289   -525610.78    525707.38 
47646000    300.64629    -525641.7    525669.17 
47647000    305.26934   -525733.09    525703.46 
47648000    303.70943   -525704.51    525695.35 
47649000    294.89517   -525756.29    525743.27 
47650000    301.02461   -525757.72    525773.62 
47651000    301.09934   -525852.27    525779.33 
47652000    301.75163   -525754.66    525760.47 
47653000    296.02418   -525786.47    525791.72 
47654000    307.43429   -525826.09    525732.41 
47655000     301.4439   -525858.21    525759.38 
47656000    302.44827   -525837.21    525815.69 
47657000    299.11462   -525844.91    525818.04 
47658000    307.14116   -525913.38    525881.09 
47659000    301.86678   -525937.97    525854.99 
47660000    299.87949   -525860.46    525879.13 
47661000    303.53875   -525892.85    525838.83 
47662000     301.3829   -525886.54    525933.69 
47663000    292.25805   -525803.81    525965.42 
47664000    298.19226   -525895.63    525992.35 
47665000    297.62751   -525922.98    525977.94 
47666000    301.75201   -526012.17    525965.13 
47667000    304.52077   -526069.12    525910.87 
47668000    306.63955   -526062.85    525864.73 
47669000    299.96636   -525986.54    525976.91 
47670000    301.44853   -525950.97    525901.61 
47671000    301.68139   -526032.31     525934.8 
47672000    305.21861    -526078.8    525969.86 
47673000    303.36031   -526086.14    525966.78 
47674000     303.0797   -526036.71    526044.86 
47675000    301.68648   -526025.12    526018.72 
47676000    303.85349   -526064.37    526023.73 
47677000    304.99746   -526119.83    526072.27 
47678000    299.78554   -526100.77    526102.72 
47679000    299.95822   -526115.49    526114.25 
47680000    299.18134   -526120.51    526121.31 
47681000    300.19114   -526142.06    526177.76 
47682000     301.8964   -526147.38    526168.35 
47683000    302.29375   -526132.41    526137.27 
47684000    300.51854   -526208.88    526239.75 
47685000    302.32089   -526227.09    526194.68 
47686000    299.66872      -526215    526237.55 
47687000    300.79281   -526215.82    526209.03 
47688000    297.27025   -526251.04    526235.04 
47689000    298.99546   -526275.26    526210.39 
47690000    299.63043    -526252.2    526277.04 
47691000    306.39343   -526265.88    526230.58 
47692000    292.16374   -526274.43    526317.71 
47693000    298.41888   -526300.33    526339.84 
47694000    298.97229   -526347.79    526391.45 
47695000    296.88124   -526296.86    526362.42 
47696000    297.87755   -526313.05    526361.18 
47697000     297.1223   -526326.89    526409.11 
47698000     296.9633   -526280.74    526362.71 
47699000    302.51792   -526323.02    526370.41 
47700000    298.72017   -526362.99     526405.4 
47701000    297.12927   -526274.67    526400.28 
47702000    296.48762   -526311.62    526471.25 
47703000    299.51113   -526358.84    526463.02 
47704000    299.49361   -526444.57    526474.01 
47705000    302.01104   -526477.98     526433.9 
47706000    301.23423   -526554.39    526473.51 
47707000    309.71227   -526488.82    526385.15 
47708000    301.95305   -526511.57    526447.74 
47709000    301.17581   -526503.66    526440.88 
47710000    299.78183    -526508.6    526481.12 
47711000    300.87419   -526588.71    526475.64 
47712000    297.80289   -526492.61    526560.76 
47713000     300.7974   -526525.98    526512.13 
47714000    300.70619   -526534.55    526526.41 
47715000    298.68825   -526547.09    526501.28 
47716000    304.75212   -526587.02    526528.02 
47717000    299.39633   -526576.46    526549.94 
47718000    298.75897    -526502.3       526546 
47719000    301.67396   -526565.15    526528.66 
47720000    299.22246   -526561.17     526565.7 
47721000    295.81012   -526543.67    526635.61 
47722000    298.54378   -526539.82    526560.36 
47723000    302.90874   -526627.45    526621.98 
47724000    300.91164   -526605.46    526558.06 
47725000      297.315    -526638.4    526665.37 
47726000    300.90437   -526668.93    526615.83 
47727000    294.99428   -526649.66    526685.33 
47728000    297.75939   -526644.67    526703.94 
47729000    294.17519   -526619.42     526708.6 
47730000    298.81404   -526713.71    526737.49 
47731000    299.61419   -526684.25     526749.2 
47732000      300.074   -526730.04    526742.82 
47733000    300.48301   -526736.29       526774 
47734000    294.60076   -526695.35    526828.56 
47735000    298.85499   -526829.74    526785.14 
47736000    298.73074   -526803.32    526810.33 
47737000       297.43   -526784.83    526909.73 
47738000    298.43784   -526798.77    526836.16 
47739000    299.03165   -526818.98    526846.86 
47740000    295.24204   -526781.06    526933.85 
47741000    298.87495   -526848.33    526938.43 
47742000    303.28631   -526910.27    526927.15 
47743000    298.65914   -526845.75    526915.74 
47744000    299.13133   -526883.15    526987.62 
47745000    295.12444   -526887.32    526963.64 
47746000     293.6366   -526853.48    527007.42 
47747000    292.51134   -526931.51     527099.4 
47748000    296.64695   -526908.88    527050.74 
47749000    291.87737   -526839.76    527014.21 
47750000    293.89751   -526926.39    527082.49 
47751000    294.36376   -526964.93    527115.03 
47752000    297.25494   -526986.28    527087.98 
47753000    296.36675   -526999.91    527111.08 
47754000    296.32954   -527093.15    527053.87 
47755000    298.39462   -527026.47    527161.98 
47756000    293.51605   -527004.69    527194.32 
47757000    298.71034   -527042.16    527161.94 
47758000    296.42299    -527048.7    527106.32 
47759000    295.85568   -527051.91    527171.55 
47760000    289.29976   -527007.89    527215.63 
47761000    294.36492    -527064.6    527153.48 
47762000     298.3173   -527127.97    527188.23 
47763000    297.76736   -527120.19    527254.96 
47764000    293.33392   -527128.05    527234.38 
47765000     296.6547   -527181.72       527248 
47766000    295.52995   -527157.24    527320.92 
47767000    299.91559   -527259.64    527330.13 
47768000    295.63868   -527154.71    527305.49 
47769000    298.61421   -527232.06       527316 
47770000    297.96722   -527290.91    527297.99 
47771000     297.3328   -527288.15    527372.38 
47772000    297.50894   -527324.33    527310.81 
47773000    293.39213   -527258.96    527374.36 
47774000    302.11596   -527389.46    527412.78 
47775000    303.53199   -527419.92    527394.43 
47776000    297.58636   -527366.04    527364.79 
47777000    298.84366   -527400.33    527395.17 
47778000    307.13517    -527458.2    527419.23 
47779000    301.44306   -527406.35    527471.11 
47780000    296.69367   -527409.15    527474.84 
47781000    298.80401   -527386.12    527496.55 
47782000    300.95716   -527467.29    527444.82 
47783000    298.91003   -527430.44    527436.21 
47784000     295.7248   -527434.47    527558.29 
47785000    296.09677   -527445.83     527548.5 
47786000    299.20248   -527518.43    527600.68 
47787000     296.2829   -527484.71    527557.11 
47788000    295.52793   -527513.11     527627.8 
47789000    298.39564   -527548.83    527636.32 
47790000    296.09715    -527515.3    527653.16 
47791000      294.491   -527550.03    527635.83 
47792000    303.75733   -527620.24     527570.9 
47793000    293.91767   -527541.54    527634.35 
47794000    296.05109   -527540.86     527586.6 
47795000    301.60989   -527513.59    527565.63 
47796000    296.22709   -527594.87    527642.37 
47797000    300.89356   -527549.81    527543.34 
47798000    304.33242   -527576.53    527551.62 
47799000    296.95353   -527683.95    527641.05 
47800000    303.42651    -527720.5    527681.94 
47801000    302.59219   -527721.21    527654.33 
47802000    303.85437   -527755.82     527641.2 
47803000    300.11238   -527712.61    527666.82 
47804000    301.34954   -527787.24    527704.66 
47805000    302.14061    -527762.6    527709.26 
47806000    298.99978   -527745.99    527796.61 
47807000    297.33229   -527829.89    527846.36 
47808000    303.08961   -527777.46     527812.8 
47809000    297.73245   -527820.42    527835.19 
47810000    300.62731   -527823.25    527847.97 
47811000    302.43728   -527874.66    527928.24 
47812000     298.0525   -527854.44    527921.19 
47813000    300.99972   -527985.82    528007.09 
47814000    301.53664   -527916.36    527952.74 
47815000    296.05194   -527927.85    528008.52 
47816000    298.02507   -528041.54    528013.09 
47817000    300.53552    -527958.9    527945.39 
47818000    303.66386   -528041.92    528022.01 
47819000    299.59697   -527968.27    528004.24 
47820000    303.04443   -528052.82    528074.51 
47821000    302.36373   -528046.89    528092.82 
47822000    300.44626   -528133.77    528151.18 
47823000    298.39382   -528071.44    528113.16 
47824000    301.73994   -528164.71    528118.01 
47825000    303.98296   -528166.83    528103.92 
47826000    302.06283   -528202.06    528176.53 
47827000    295.84273   -528188.98    528172.97 
47828000    303.35382   -528189.94    528180.94 
47829000    294.28503   -528215.93    528287.11 
47830000    299.47795   -528182.52    528233.09 
47831000    297.29473   -528165.31    528300.43 
47832000    297.68822   -528222.14    528265.31 
47833000    304.79431   -528251.05    528218.47 
47834000    302.18128   -528279.88    528296.89 
47835000    294.86565   -528233.71     528345.3 
47836000    302.69445   -528349.38    528253.18 
47837000    299.82979   -528305.63     528282.7 
47838000    302.01055   -528314.97    528311.24 
47839000    295.17674   -528295.24    528392.63 
47840000     299.1222   -528365.27     528367.2 
47841000    299.76822      -528301    528343.47 
47842000    298.52232   -528364.88    528417.42 
47843000    300.25966   -528335.91    528404.73 
47844000     303.9003   -528379.83    528398.53 
47845000     299.0939    -528487.4    528471.85 
47846000    299.94924   -528473.28    528532.64 
47847000    305.63975   -528477.29    528451.23 
47848000    301.50274   -528472.33    528445.82 
47849000    304.02248    -528479.8    528477.38 
47850000     299.2611   -528443.64    528490.02 
47851000    297.80865   -528472.31    528569.58 
47852000    297.07397   -528509.48    528539.41 
47853000    298.77206   -528486.79     528523.4 
47854000    298.31708   -528525.76    528567.34 
47855000    300.61167   -528570.01    528600.35 
47856000    298.58694   -528514.35    528584.55 
47857000    297.58707   -528571.95    528677.15 
47858000    299.81418   -528619.39    528664.96 
47859000    296.23951   -528574.93    528690.67 
47860000    300.96879      -528607    528611.43 
47861000    297.52236   -528652.15    528696.51 
47862000    297.33014   -528665.85    528721.69 
47863000    304.97775   -528686.39    528679.93 
47864000    294.78841   -528668.06    528741.74 
47865000    297.61732   -528691.59    528729.74 
47866000    298.94701   -528711.12    528727.03 
47867000    304.89991   -528740.31     528732.5 
47868000    299.90213   -528747.89     528810.2 
47869000    300.29156   -528763.49    528707.76 
47870000    302.44319   -528701.78    528761.22 
47871000    296.81555   -528758.95    528821.33 
47872000    303.13573   -528762.29    528787.14 
47873000    296.20899   -528743.03    528842.13 
47874000    298.12652   -528804.89    528894.12 
47875000    295.48829   -528842.43    528899.42 
47876000    297.69804   -528855.49    528877.78 
47877000    300.82876   -528888.19    528872.69 
47878000    295.70762   -528859.18    528856.77 
47879000    298.63684   -528916.45    528948.14 
47880000    299.48233   -528839.09    528879.96 
47881000    296.79105   -528885.04    528933.63 
47882000    303.25236   -528953.58    528943.11 
47883000    297.55846   -528935.74    528918.43 
47884000    295.46482   -528898.24    528960.82 
47885000    302.09777   -528943.84    528936.12 
47886000    297.95514   -528928.68     529019.3 
47887000    303.32251   -529006.83    528986.81 
47888000    302.45941   -529063.25     529015.8 
47889000    301.39484   -529050.45    529012.16 
47890000    294.77174   -529025.66     529043.3 
47891000    300.34354   -529035.32    529041.46 
47892000    299.10786   -528979.47    529054.42 
47893000    297.16819   -529104.24    529110.85 
47894000    297.84671   -529130.17    529175.28 
47895000    301.27675   -529200.14    529240.19 
47896000     296.5396   -529132.38     529231.9 
47897000    300.18213   -529150.52    529195.95 
47898000    300.30898   -529135.57    529178.31 
47899000    301.27154   -529211.04    529198.39 
47900000    296.44414    -529188.8    529278.21 
47901000    298.06725   -529196.51     529308.3 
47902000    299.49156   -529226.28    529277.88 
47903000     297.7225   -529249.25     529314.1 
47904000    301.54276   -529304.36    529294.22 
47905000    297.06898   -529241.99    529259.64 
47906000    298.10256   -529324.65    529311.42 
47907000    302.21754   -529270.82    529329.99 
47908000    296.24749   -529255.15    529344.76 
47909000    297.74378    -529318.4    529305.93 
47910000    297.83923   -529270.84    529375.05 
47911000    296.61398   -529265.28    529377.11 
47912000    297.14284   -529321.26    529409.93 
47913000    295.36622   -529337.73    529486.35 
47914000    294.71796   -529374.49    529532.46 
47915000    295.22466   -529381.57    529523.46 
47916000    292.98723   -529364.02    529498.91 
47917000    294.51081   -529343.19     529520.8 
47918000    299.81364   -529404.76    529514.09 
47919000    304.76186   -529434.75    529435.23 
47920000    298.39553      -529399    529518.37 
47921000    301.16241   -529455.55    529545.88 
47922000     296.5295   -529555.06    529532.75 
47923000    297.00554   -529506.41    529556.32 
47924000     298.3728   -529545.78    529574.99 
47925000    295.32703   -529575.79    529585.07 
47926000    301.01799      -529570    529594.81 
47927000    305.52911   -529560.83    529557.34 
47928000    300.13587   -529547.66    529659.67 
47929000    300.77999   -529645.78    529680.13 
47930000    302.50462   -529647.63    529711.91 
47931000    298.88414   -529662.48    529703.77 
47932000    299.11797   -529654.21    529707.55 
47933000    295.59287   -529651.48    529736.05 
47934000    297.77907   -529644.52    529728.23 
47935000    298.06888   -529657.06    529779.95 
47936000    302.71575   -529715.37    529776.41 
47937000    301.98384   -529703.71    529765.01 
47938000    300.31523   -529748.07     529778.9 
47939000    298.92807   -529797.27    529819.54 
47940000    302.84249   -529829.43    529892.45 
47941000     302.3664    -529825.7    529830.32 
47942000    300.66637   -529839.93    529870.84 
47943000    298.30631   -529796.94    529861.86 
47944000    300.05709   -529859.57    529853.83 
47945000    302.29279   -529828.28    529789.95 
47946000    298.74714   -529912.26     529815.5 
47947000    302.56184    -529927.4    529854.74 
47948000    303.22975   -529924.94    529837.68 
47949000    305.76329    -529897.8    529907.16 
47950000    297.00586   -529843.84    529939.69 
47951000    292.98245   -529864.51    529935.01 
47952000    301.19088    -529944.4    529918.75 
47953000     302.6388    -529995.3    529965.22 
47954000    308.15759      -530038    529916.27 
47955000    302.55535   -529947.81    529916.84 
47956000    296.85206   -529908.45    529989.78 
47957000     305.7286   -529999.42    529953.16 
47958000    298.70243   -530006.16    530038.05 
47959000    291.45689    -529968.9    530042.95 
47960000    298.29146   -530073.09    530097.38 
47961000    297.06389   -530026.53    530100.34 
47962000    294.51837   -530020.23    530147.69 
47963000    298.26062   -530004.84    530106.09 
47964000    304.34069   -530122.74    530073.19 
47965000    298.03191   -530141.13    530163.06 
47966000    299.92782   -530031.92    530107.93 
47967000    297.33885   -530112.69    530152.44 
47968000    297.33829      -530057    530179.04 
47969000    296.77527   -530056.61    530169.16 
47970000     300.4239   -530138.46    530181.44 
47971000    300.60938   -530123.19     530180.4 
47972000     304.7498   -530174.34    530191.54 
47973000    305.06563   -530246.56    530164.21 
47974000    298.56849   -530187.39    530237.57 
47975000    303.18204   -530270.83    530222.44 
47976000    295.16304   -530243.63    530255.86 
47977000    299.42785   -530236.47    530263.84 
47978000    295.53998   -530260.74    530299.82 
47979000    299.52603   -530303.89    530274.96 
47980000    301.35393   -530327.46    530278.76 
47981000    297.69747   -530349.79    530344.29 
47982000    298.48604   -530268.47    530306.27 
47983000    300.66921   -530373.01     530379.3 
47984000    296.09382   -530315.33    530401.35 
47985000    299.62574   -530416.32    530448.52 
47986000    304.44715   -530402.47    530409.77 
47987000    298.51794   -530445.24    530460.59 
47988000    300.22374   -530445.26    530521.19 
47989000    298.33238   -530455.51     530526.1 
47990000    302.85839   -530486.22    530519.31 
47991000    301.20385   -530541.85    530505.79 
47992000    298.13097   -530507.51     530507.5 
47993000    295.35189    -530466.9    530556.45 
47994000    302.07344   -530577.29    530599.25 
47995000    299.83173    -530557.2    530565.84 
47996000    294.36406   -530516.45    530584.16 
47997000    302.59404   -530539.61    530569.44 
47998000    298.50752   -530507.34       530629 
47999000    298.34852   -530533.15    530653.38 
48000000    293.54731   -530574.73     530683.7 
48001000    296.55178   -530551.66    530730.59 
48001865    291.15023   -530571.23    530750.25 
Loop time of 68990.1 on 32 procs for 40000000 steps with 4800 atoms

Performance: 12.524 ns/day, 1.916 hours/ns, 579.793 timesteps/s
93.8% CPU use with 32 MPI tasks x no OpenMP threads

MPI task timing breakdown:
Section |  min time  |  avg time  |  max time  |%varavg| %total
---------------------------------------------------------------
Pair    | 36506      | 41376      | 43351      | 679.4 | 59.97
Bond    | 2023.2     | 2217.6     | 2322.7     | 135.0 |  3.21
Neigh   | 1671.6     | 1704.3     | 1737.1     |  50.4 |  2.47
Comm    | 16971      | 19039      | 24423      |1106.0 | 27.60
Output  | 15.038     | 15.701     | 19.935     |  21.6 |  0.02
Modify  | 613.01     | 897.08     | 1207.7     | 668.7 |  1.30
Other   |            | 3741       |            |       |  5.42

Nlocal:    150 ave 163 max 135 min
Histogram: 1 1 2 6 4 3 6 7 1 1
Nghost:    2931.22 ave 2978 max 2865 min
Histogram: 1 1 2 1 4 5 9 5 2 2
Neighs:    30337.1 ave 32957 max 27358 min
Histogram: 3 2 1 3 5 5 3 4 3 3

Total # of neighbors = 970787
Ave neighs/atom = 202.247
Ave special neighs/atom = 6
Neighbor list builds = 800000
Dangerous builds not checked
Total wall time: 23:24:52
