LAMMPS Description # full

4 atoms
3 bonds
2 angles
1 dihedrals
0 impropers

2 atom types
2 bond types
1 angle types
1 dihedral types
0 improper types

0 44.9798 xlo xhi
0 47.5468 ylo yhi
0 45.0606 zlo zhi

Masses

1 15.0350 # CH3 n-Butane C 83 #
2 14.0270 # CH2 n-Butane C 86 #

Pair Coeffs

1 0.1750 3.9050
2 0.1180 3.9050

Bond Coeffs

1 260.0000 1.5260
2 260.0000 1.5260

Angle Coeffs

1 63.0000 112.4000

Dihedral Coeffs

1 0.0000 0.0000 4.0000 0.0000

Atoms

1 1 1 0.0000 -0.1757 0.5166 0.6160
2 1 2 0.0000 0.1886 -0.5182 -0.4446
3 1 2 0.0000 0.8041 -1.7775 0.1589
4 1 1 0.0000 -0.0089 -3.0301 -0.1554

Bonds

1 1 1 2
2 1 3 4
3 2 2 3

Angles

1 1 1 2 3
2 1 4 3 2

Dihedrals

1 1 1 2 3 4

