LAMMPS (19 Nov 2024)
OMP_NUM_THREADS environment is not set. Defaulting to 1 thread. (src/comm.cpp:99)
  using 1 OpenMP thread(s) per MPI task
units real
atom_style full
bond_style harmonic
angle_style harmonic
dihedral_style opls
improper_style cvff
special_bonds lj/coul 0 0 0.5
pair_style lj/cut 11.0
pair_modify mix geometric
read_data amorp_bldr.data
Reading data file ...
  orthogonal box = (0 0 0) to (73.9549 73.9549 73.9549)
  1 by 1 by 1 MPI processor grid
  reading atoms ...
  10 atoms
Finding 1-2 1-3 1-4 neighbors ...
  special bond factors lj:    0        0        0.5     
  special bond factors coul:  0        0        0.5     
     0 = max # of 1-2 neighbors
     0 = max # of 1-3 neighbors
     0 = max # of 1-4 neighbors
     1 = max # of special neighbors
  special bonds CPU = 0.000 seconds
  read_data CPU = 0.002 seconds

dump 1 all custom 1000 amorp_bldr.custom.gz id xu yu zu
dump_modify 1 sort id
min_style fire
minimize 1.0e-6 1.0e-8 1000000 10000000
Generated 0 of 0 mixed pair_coeff terms from geometric mixing rule
Neighbor list info ...
  update: every = 1 steps, delay = 0 steps, check = yes
  max neighbors/atom: 2000, page size: 100000
  master list distance cutoff = 13
  ghost atom cutoff = 13
  binsize = 6.5, bins = 12 12 12
  1 neighbor lists, perpetual/occasional/extra = 1 0 0
  (1) pair lj/cut, perpetual
      attributes: half, newton on
      pair build: half/bin/newton
      stencil: half/bin/3d
      bin: standard
  Parameters for fire:
    dmax  delaystep dtgrow dtshrink alpha0 alphashrink tmax tmin   integrator   halfstepback   abcfire  
     0.1     20      1.1     0.5     0.25     0.99      10  0.02 eulerimplicit      yes          no     
Per MPI rank memory allocation (min/avg/max) = 6.017 | 6.017 | 6.017 Mbytes
   Step          Temp          E_pair         E_mol          TotEng         Press     
         0   0              0              0              0              0            
         1   0              0              0              0              0            
Loop time of 2.8258e-05 on 1 procs for 1 steps with 10 atoms

81.4% CPU use with 1 MPI tasks x 1 OpenMP threads

Minimization stats:
  Stopping criterion = force tolerance
  Energy initial, next-to-last, final = 
                     0                  0                  0
  Force two-norm initial, final = 0 0
  Force max component initial, final = 0 0
  Final line search alpha, max atom move = 0 0
  Iterations, force evaluations = 1 2

MPI task timing breakdown:
Section |  min time  |  avg time  |  max time  |%varavg| %total
---------------------------------------------------------------
Pair    | 7.13e-07   | 7.13e-07   | 7.13e-07   |   0.0 |  2.52
Bond    | 8.98e-07   | 8.98e-07   | 8.98e-07   |   0.0 |  3.18
Neigh   | 0          | 0          | 0          |   0.0 |  0.00
Comm    | 3.212e-06  | 3.212e-06  | 3.212e-06  |   0.0 | 11.37
Output  | 0          | 0          | 0          |   0.0 |  0.00
Modify  | 0          | 0          | 0          |   0.0 |  0.00
Other   |            | 2.344e-05  |            |       | 82.93

Nlocal:             10 ave          10 max          10 min
Histogram: 1 0 0 0 0 0 0 0 0 0
Nghost:             15 ave          15 max          15 min
Histogram: 1 0 0 0 0 0 0 0 0 0
Neighs:              2 ave           2 max           2 min
Histogram: 1 0 0 0 0 0 0 0 0 0

Total # of neighbors = 2
Ave neighs/atom = 0.2
Ave special neighs/atom = 0
Neighbor list builds = 0
Dangerous builds = 0

timestep 1.0
thermo_modify flush yes
thermo 1000
velocity all create 300 1062307197
fix 2a all temp/berendsen 300 300 100
fix 2b all nve
run 5000
Generated 0 of 0 mixed pair_coeff terms from geometric mixing rule
Per MPI rank memory allocation (min/avg/max) = 7.267 | 7.267 | 7.267 Mbytes
   Step          Temp          E_pair         E_mol          TotEng         Press     
         1   300            0              0              8.0481871      0.90955728   
      1000   300.00325     -0.00097044243  0              8.0473037      0.90923844   
      2000   299.99788     -0.0025060246   0              8.0456242      0.90870234   
      3000   299.99729     -0.00084681908  0              8.0472677      0.90926223   
      4000   300.00058     -0.0010527485   0              8.04715        0.90920252   
      5000   299.99982      0              0              8.0481822      0.90955673   
      5001   299.99982      0              0              8.0481823      0.90955673   
Loop time of 0.00565244 on 1 procs for 5000 steps with 10 atoms

Performance: 76427.212 ns/day, 0.000 hours/ns, 884574.211 timesteps/s, 8.846 Matom-step/s
97.1% CPU use with 1 MPI tasks x 1 OpenMP threads

MPI task timing breakdown:
Section |  min time  |  avg time  |  max time  |%varavg| %total
---------------------------------------------------------------
Pair    | 0.00061697 | 0.00061697 | 0.00061697 |   0.0 | 10.92
Bond    | 0.00034963 | 0.00034963 | 0.00034963 |   0.0 |  6.19
Neigh   | 0.00013321 | 0.00013321 | 0.00013321 |   0.0 |  2.36
Comm    | 0.0011531  | 0.0011531  | 0.0011531  |   0.0 | 20.40
Output  | 0.00024458 | 0.00024458 | 0.00024458 |   0.0 |  4.33
Modify  | 0.0018235  | 0.0018235  | 0.0018235  |   0.0 | 32.26
Other   |            | 0.001331   |            |       | 23.56

Nlocal:             10 ave          10 max          10 min
Histogram: 1 0 0 0 0 0 0 0 0 0
Nghost:             14 ave          14 max          14 min
Histogram: 1 0 0 0 0 0 0 0 0 0
Neighs:              1 ave           1 max           1 min
Histogram: 1 0 0 0 0 0 0 0 0 0

Total # of neighbors = 1
Ave neighs/atom = 0.1
Ave special neighs/atom = 0
Neighbor list builds = 35
Dangerous builds = 0
unfix 2b
unfix 2a

quit 0
