ITEM: TIMESTEP
0
ITEM: NUMBER OF ATOMS
100
ITEM: BOX BOUNDS pp pp pp
0.0000000000000000e+00 1.6064779999999999e+02
0.0000000000000000e+00 1.6064779999999999e+02
0.0000000000000000e+00 1.6064779999999999e+02
ITEM: ATOMS id xu yu zu
1 130.627 96.2323 103.769
2 136.538 95.9722 81.0097
3 153.629 75.6619 79.0336
4 147.337 90.8955 67.1153
5 131.094 79.1963 83.544
6 148.985 86.8632 83.8206
7 129.103 124.353 70.4126
8 117.71 105.267 69.6015
9 143.19 119.865 50.8245
10 73.877 129.403 21.1232
11 89.1182 137.057 -19.4845
12 89.1638 160.695 -23.8346
13 70.9264 113.231 0.6993
14 81.8046 151.227 37.3575
15 75.8307 126.443 18.9296
16 66.2282 124.976 -10.7992
17 76.6954 140.887 -11.3447
18 119.487 -4.0114 28.7085
19 77.5509 34.3211 144.758
20 45.4884 83.1226 117.218
21 44.1874 54.5025 159.455
22 45.9441 72.183 126.341
23 36.4606 57.4073 154.457
24 47.7307 52.3352 156.247
25 75.5942 62.8223 143.586
26 53.8109 71.1004 122.019
27 41.3423 65.3702 124.348
28 15.8115 90.6335 82.6701
29 -7.1719 81.0498 87.6843
30 75.2306 47.015 35.1918
31 160.935 63.0786 88.2216
32 129.164 19.8783 99.4551
33 155.818 73.8023 119.23
34 130.708 55.3993 88.7835
35 104.544 62.7535 120.054
36 134.147 64.5452 134.603
37 139.525 38.2255 85.18
38 147.05 45.7849 114.552
39 17.2008 90.9073 11.2938
40 72.9827 84.6199 60.402
41 96.2215 15.0905 46.0311
42 18.5166 14.3438 32.0086
43 24.4773 29.4357 33.002
44 34.5894 18.2166 10.4847
45 20.3275 -31.4266 39.7923
46 11.7597 8.5573 8.9539
47 9.4373 -28.9566 1.2773
48 31.1408 -12.0919 53.069
49 42.2669 31.7835 24.2798
50 11.6349 -17.963 32.3928
51 44.2349 -18.9241 26.2408
52 32.0015 1.3581 39.9211
53 44.8729 93.6524 143.786
54 46.6489 112.578 131.001
55 78.7522 2.3494 104.72
56 63.6916 13.08 79.8321
57 78.0738 -13.1883 71.6873
58 -0.5813 66.0345 99.9056
59 16.5655 148.93 79.8727
60 -11.073 129.978 86.6783
61 129.132 67.9867 146.053
62 8.5516 146.642 4.616
63 51.95 130.962 15.1179
64 35.3955 135.743 -12.927
65 62.5817 -3.8414 13.6867
66 47.3489 138.634 63.8268
67 60.9426 114.964 53.6414
68 84.698 128.574 56.494
69 88.2555 18.9704 83.5834
70 143.72 -6.4755 62.0069
71 98.4113 11.7429 103.912
72 119.962 11.1698 98.8677
73 95.7551 -27.2095 86.589
74 91.5906 -6.0324 91.912
75 115.009 -4.6098 88.9096
76 109.533 75.0653 -13.9548
77 101.882 56.5137 11.9157
78 17.2594 90.4488 128.352
79 1.2032 98.5426 131.11
80 10.4661 94.0267 110.606
81 4.1206 87.3453 119.115
82 10.3086 98.0188 124.562
83 2.4692 67.4158 149.292
84 6.6064 94.5477 144.686
85 -0.6414 83.5491 125.194
86 171.628 117.613 113.327
87 134.894 135.241 151.793
88 128.248 139.008 150.063
89 125.769 126.212 155.496
90 144.198 129.452 127.533
91 37.991 59.0616 75.7756
92 40.4693 53.3065 36.6701
93 8.8969 79.2555 70.8586
94 -2.6614 85.0735 68.1677
95 32.5165 84.7192 72.2951
96 34.4148 72.0169 48.5259
97 70.6583 93.9352 102.639
98 85.9955 90.7489 126.594
99 95.2468 63.2879 114.486
100 54.8478 64.2055 90.1239
ITEM: TIMESTEP
1000
ITEM: NUMBER OF ATOMS
100
ITEM: BOX BOUNDS pp pp pp
0.0000000000000000e+00 1.6064779999999999e+02
0.0000000000000000e+00 1.6064779999999999e+02
0.0000000000000000e+00 1.6064779999999999e+02
ITEM: ATOMS id xu yu zu
1 130.627 96.2323 103.769
2 136.538 95.9722 81.0097
3 153.624 75.7446 79.1601
4 147.337 90.8955 67.1153
5 131.094 79.1963 83.544
6 149.548 86.1292 84.2967
7 129.103 124.353 70.4126
8 117.71 105.267 69.6015
9 143.19 119.865 50.8245
10 73.9596 129.277 21.0305
11 89.1182 137.057 -19.4845
12 89.1638 160.695 -23.8346
13 70.9264 113.231 0.6993
14 81.8046 151.227 37.3575
15 75.7481 126.568 19.0223
16 66.2282 124.976 -10.7992
17 76.6954 140.887 -11.3447
18 119.487 -4.0114 28.7085
19 77.5509 34.3211 144.758
20 45.4884 83.1226 117.218
21 44.5436 54.2506 158.908
22 45.8552 71.5448 125.995
23 36.615 57.3471 154.543
24 47.2201 52.6473 156.708
25 75.5942 62.8223 143.586
26 53.4803 71.1375 122.195
27 41.7618 65.9713 124.518
28 15.8115 90.6335 82.6701
29 -7.73071 81.7011 87.0816
30 75.2306 47.015 35.1918
31 160.935 63.0786 88.2216
32 129.164 19.8783 99.4551
33 155.818 73.8023 119.23
34 130.708 55.3993 88.7835
35 104.462 62.7582 120.005
36 134.147 64.5452 134.603
37 139.525 38.2255 85.18
38 147.05 45.7849 114.552
39 17.2008 90.9073 11.2938
40 72.9827 84.6199 60.402
41 96.2215 15.0905 46.0311
42 18.5166 14.3438 32.0086
43 24.4773 29.4357 33.002
44 34.5894 18.2166 10.4847
45 20.3275 -31.4266 39.7923
46 11.7597 8.5573 8.9539
47 9.4373 -28.9566 1.2773
48 31.1408 -12.0919 53.069
49 42.2669 31.7835 24.2798
50 11.6349 -17.963 32.3928
51 44.2349 -18.9241 26.2408
52 32.0015 1.3581 39.9211
53 44.8729 93.6524 143.786
54 46.6489 112.578 131.001
55 78.7522 2.3494 104.72
56 63.6916 13.08 79.8321
57 78.0738 -13.1883 71.6873
58 -0.5813 66.0345 99.9056
59 16.5655 148.93 79.8727
60 -11.073 129.978 86.6783
61 129.132 67.9867 146.053
62 8.5516 146.642 4.616
63 51.95 130.962 15.1179
64 35.3955 135.743 -12.927
65 62.5817 -3.8414 13.6867
66 47.3489 138.634 63.8268
67 60.9426 114.964 53.6414
68 84.698 128.574 56.494
69 88.2555 18.9704 83.5834
70 143.72 -6.4755 62.0069
71 98.4113 11.7429 103.912
72 119.962 11.1698 98.8677
73 95.7551 -27.2095 86.589
74 91.5906 -6.0324 91.912
75 115.009 -4.6098 88.9096
76 109.533 75.0653 -13.9548
77 101.882 56.5137 11.9157
78 17.203 90.5102 128.321
79 1.2032 98.5426 131.11
80 10.4661 94.0267 110.606
81 3.76045 87.0582 119.575
82 10.365 97.9574 124.593
83 2.4692 67.4158 149.292
84 6.6064 94.5477 144.686
85 -0.28125 83.8362 124.734
86 171.628 117.613 113.327
87 133.191 136.206 151.35
88 129.952 138.043 150.507
89 125.769 126.212 155.496
90 144.198 129.452 127.533
91 37.991 59.0616 75.7756
92 40.4693 53.3065 36.6701
93 8.8969 79.2555 70.8586
94 -2.6614 85.0735 68.1677
95 32.5165 84.7192 72.2951
96 34.4148 72.0169 48.5259
97 70.6583 93.9352 102.639
98 85.9955 90.7489 126.594
99 95.3284 63.2832 114.535
100 54.8478 64.2055 90.1239
ITEM: TIMESTEP
1704
ITEM: NUMBER OF ATOMS
100
ITEM: BOX BOUNDS pp pp pp
0.0000000000000000e+00 1.6064779999999999e+02
0.0000000000000000e+00 1.6064779999999999e+02
0.0000000000000000e+00 1.6064779999999999e+02
ITEM: ATOMS id xu yu zu
1 130.627 96.2323 103.769
2 136.538 95.9722 81.0097
3 153.618 75.7835 79.2053
4 147.337 90.8955 67.1153
5 131.094 79.1963 83.544
6 150.202 85.2682 84.8353
7 129.103 124.353 70.4126
8 117.71 105.267 69.6015
9 143.19 119.865 50.8245
10 73.9596 129.277 21.0305
11 89.1182 137.057 -19.4845
12 89.1638 160.695 -23.8346
13 70.9264 113.231 0.6993
14 81.8046 151.227 37.3575
15 75.7481 126.568 19.0223
16 66.2282 124.976 -10.7992
17 76.6954 140.887 -11.3447
18 119.487 -4.0114 28.7085
19 77.5509 34.3211 144.758
20 45.4884 83.1226 117.218
21 44.4857 54.2703 158.857
22 45.0299 70.2415 125.588
23 36.6872 57.3189 154.583
24 47.2058 52.6558 156.719
25 75.5942 62.8223 143.586
26 53.3243 71.1379 122.268
27 42.7431 67.2742 124.852
28 15.8115 90.6335 82.6701
29 -8.37811 82.5232 86.4979
30 75.2306 47.015 35.1918
31 160.935 63.0786 88.2216
32 129.164 19.8783 99.4551
33 155.818 73.8023 119.23
34 130.708 55.3993 88.7835
35 104.428 62.7601 119.984
36 134.147 64.5452 134.603
37 139.525 38.2255 85.18
38 147.05 45.7849 114.552
39 17.2008 90.9073 11.2938
40 72.9827 84.6199 60.402
41 96.2215 15.0905 46.0311
42 18.5166 14.3438 32.0086
43 24.4773 29.4357 33.002
44 34.5894 18.2166 10.4847
45 20.3275 -31.4266 39.7923
46 11.7597 8.5573 8.9539
47 9.4373 -28.9566 1.2773
48 31.1408 -12.0919 53.069
49 42.2669 31.7835 24.2798
50 11.6349 -17.963 32.3928
51 44.2349 -18.9241 26.2408
52 32.0015 1.3581 39.9211
53 44.8729 93.6524 143.786
54 46.6489 112.578 131.001
55 78.7522 2.3494 104.72
56 63.6916 13.08 79.8321
57 78.0738 -13.1883 71.6873
58 -0.5813 66.0345 99.9056
59 16.5655 148.93 79.8727
60 -11.073 129.978 86.6783
61 129.132 67.9867 146.053
62 8.5516 146.642 4.616
63 51.95 130.962 15.1179
64 35.3955 135.743 -12.927
65 62.5817 -3.8414 13.6867
66 47.3489 138.634 63.8268
67 60.9426 114.964 53.6414
68 84.698 128.574 56.494
69 88.2555 18.9704 83.5834
70 143.72 -6.4755 62.0069
71 98.4113 11.7429 103.912
72 119.962 11.1698 98.8677
73 95.7551 -27.2095 86.589
74 91.5906 -6.0324 91.912
75 115.009 -4.6098 88.9096
76 109.533 75.0653 -13.9548
77 101.882 56.5137 11.9157
78 17.1797 90.5356 128.308
79 1.2032 98.5426 131.11
80 10.4661 94.0267 110.606
81 2.79594 86.2893 120.806
82 10.3883 97.932 124.606
83 2.4692 67.4158 149.292
84 6.6064 94.5477 144.686
85 0.683258 84.6051 123.503
86 171.628 117.613 113.327
87 133.191 136.206 151.35
88 129.952 138.043 150.507
89 125.769 126.212 155.496
90 144.198 129.452 127.533
91 37.991 59.0616 75.7756
92 40.4693 53.3065 36.6701
93 8.8969 79.2555 70.8586
94 -2.6614 85.0735 68.1677
95 32.5165 84.7192 72.2951
96 34.4148 72.0169 48.5259
97 70.6583 93.9352 102.639
98 85.9955 90.7489 126.594
99 95.3624 63.2813 114.555
100 54.8478 64.2055 90.1239
ITEM: TIMESTEP
2000
ITEM: NUMBER OF ATOMS
100
ITEM: BOX BOUNDS pp pp pp
0.0000000000000000e+00 1.6064779999999999e+02
0.0000000000000000e+00 1.6064779999999999e+02
0.0000000000000000e+00 1.6064779999999999e+02
ITEM: ATOMS id xu yu zu
1 130.367 96.3813 103.784
2 136.654 95.8247 80.9147
3 153.499 75.5745 78.9915
4 147.381 90.8002 66.9216
5 131.327 79.0542 83.4525
6 150.013 85.0584 84.5911
7 128.993 124.308 70.4132
8 117.511 105.289 69.641
9 142.969 119.7 50.8486
10 74.1289 129.333 20.9186
11 89.0892 137.098 -19.449
12 89.0462 160.658 -23.6016
13 71.0645 113.254 0.920696
14 81.6406 151.222 37.5534
15 75.6888 126.529 19.1887
16 66.1863 125.125 -10.897
17 76.7537 140.95 -11.297
18 119.66 -4.04382 28.7814
19 77.3687 34.575 144.966
20 45.4214 83.1045 117.148
21 44.4334 54.0416 158.658
22 45.2106 70.4336 125.813
23 36.7263 57.3452 154.675
24 47.1729 52.4087 156.615
25 75.6656 62.818 143.423
26 53.4569 71.215 122.167
27 42.7852 67.3615 125.089
28 15.9278 90.4353 82.4835
29 -8.51506 82.6433 86.4698
30 75.1469 47.2678 35.1056
31 160.875 63.2519 88.0227
32 128.944 19.9059 99.2411
33 155.794 73.581 119.286
34 130.694 55.2654 88.9355
35 104.53 62.5493 120.194
36 134.102 64.7068 134.45
37 139.369 38.4754 85.2943
38 147.035 45.7029 114.472
39 17.3155 90.6876 11.5214
40 72.861 84.5183 60.5415
41 96.2346 15.1686 45.7881
42 18.4996 14.1786 31.8862
43 24.5311 29.4097 32.7927
44 34.7822 18.1318 10.6892
45 20.5187 -31.6284 39.6979
46 11.6629 8.81094 9.14477
47 9.43896 -29.1657 1.2958
48 31.2472 -12.1692 53.2617
49 42.457 31.7641 24.4535
50 11.5697 -17.9523 32.6066
51 44.3672 -18.7865 26.3671
52 31.8408 1.57024 40.0571
53 44.9932 93.8606 143.899
54 46.7983 112.576 131.179
55 78.6602 2.21335 104.554
56 63.6367 13.1138 80.0064
57 78.1564 -13.2031 71.8291
58 -0.684311 66.0653 100.14
59 16.5188 148.78 79.88
60 -10.9275 130.082 86.7924
61 128.921 68.0979 146.228
62 8.58674 146.851 4.50985
63 51.7288 130.943 15.1164
64 35.2181 135.911 -13.1611
65 62.623 -3.63432 13.7024
66 47.4758 138.743 63.9733
67 61.0007 115.193 53.4564
68 84.5446 128.79 56.6055
69 88.0493 19.0927 83.4438
70 143.503 -6.41088 61.9971
71 98.3815 11.6268 103.98
72 119.892 11.0318 98.7627
73 95.8974 -27.3357 86.5623
74 91.3879 -6.12008 91.735
75 115.14 -4.65997 88.798
76 109.74 74.8225 -14.1606
77 101.721 56.5179 11.7614
78 17.0896 90.4218 128.474
79 1.29439 98.7651 131.005
80 10.5443 94.2283 110.398
81 2.68003 86.3624 120.957
82 10.5486 97.7815 124.489
83 2.70678 67.631 149.432
84 6.6956 94.3036 144.437
85 0.743914 84.5418 123.708
86 171.621 117.415 113.116
87 133.078 135.949 151.233
88 130.146 138.101 150.492
89 125.801 126.355 155.385
90 144.079 129.449 127.447
91 38.0876 59.1586 75.6933
92 40.5171 53.1372 36.7704
93 8.96764 79.3614 70.8741
94 -2.57478 84.9096 67.9497
95 32.332 84.9233 72.2754
96 34.6142 72.1806 48.4685
97 70.7015 93.72 102.872
98 86.2089 90.9671 126.614
99 95.3035 63.3405 114.462
100 54.9921 64.0477 90.2564
ITEM: TIMESTEP
3000
ITEM: NUMBER OF ATOMS
100
ITEM: BOX BOUNDS pp pp pp
0.0000000000000000e+00 1.6064779999999999e+02
0.0000000000000000e+00 1.6064779999999999e+02
0.0000000000000000e+00 1.6064779999999999e+02
ITEM: ATOMS id xu yu zu
1 128.66 97.3595 103.882
2 137.416 94.8562 80.2908
3 152.718 74.2054 77.591
4 147.671 90.1747 65.6497
5 132.858 78.1213 82.8517
6 148.708 83.8748 82.985
7 128.273 124.011 70.4173
8 116.199 105.428 69.9003
9 141.514 118.616 51.0066
10 74.8723 130.186 20.6011
11 88.8991 137.366 -19.2156
12 88.2742 160.411 -22.0717
13 71.9712 113.408 2.37442
14 80.5639 151.192 38.8399
15 75.6677 125.786 19.8639
16 65.9114 126.105 -11.539
17 77.1362 141.368 -10.984
18 120.799 -4.25667 29.2602
19 76.1723 36.2425 146.33
20 44.9817 82.9856 116.687
21 44.0176 52.5816 157.399
22 46.0201 71.1903 127.155
23 36.9957 57.5117 155.284
24 47.0167 50.7506 155.88
25 76.1343 62.79 142.355
26 54.3147 71.7205 121.508
27 43.4521 68.4402 126.771
28 16.6912 89.1337 81.2584
29 -9.35092 83.235 86.2843
30 74.5972 48.9277 34.5398
31 160.479 64.3901 86.7167
32 127.498 20.0874 97.8358
33 155.639 72.1278 119.655
34 130.604 54.3863 89.9335
35 105.195 61.165 121.567
36 133.807 65.7678 133.447
37 138.34 40.116 86.0449
38 146.936 45.1643 113.949
39 18.0687 89.2448 13.0158
40 72.0618 83.8508 61.4576
41 96.3205 15.6813 44.1927
42 18.3878 13.094 31.0821
43 24.8845 29.2389 31.4186
44 36.0484 17.575 12.0316
45 21.7742 -32.9534 39.0777
46 11.0275 10.4764 10.398
47 9.44987 -30.5388 1.41725
48 31.9457 -12.677 54.5272
49 43.7054 31.6365 25.5942
50 11.1413 -17.8823 34.0106
51 45.2356 -17.8827 27.1966
52 30.7855 2.96322 40.9504
53 45.7831 95.2273 144.642
54 47.7793 112.562 132.345
55 78.0561 1.32004 103.458
56 63.2761 13.3357 81.151
57 78.6988 -13.3002 72.7602
58 -1.3607 66.2677 101.683
59 16.2119 147.796 79.9282
60 -9.97205 130.764 87.5419
61 127.533 68.8284 147.378
62 8.8175 148.226 3.81282
63 50.276 130.818 15.1068
64 34.0531 137.016 -14.6983
65 62.8942 -2.27462 13.8055
66 48.3091 139.455 64.9349
67 61.3824 116.693 52.2417
68 83.5376 130.207 57.3374
69 86.6953 19.8957 82.5269
70 142.08 -5.98661 61.9331
71 98.1861 10.8645 104.429
72 119.427 10.1256 98.0735
73 96.8321 -28.1642 86.3869
74 90.0567 -6.69579 90.573
75 115.994 -4.98938 88.065
76 111.099 73.2281 -15.512
77 100.661 56.5453 10.7484
78 16.4949 89.6788 129.56
79 1.89319 100.226 130.313
80 11.0579 95.5519 109.033
81 1.84869 86.7483 122.08
82 11.6046 96.7892 123.721
83 4.26679 69.0441 150.349
84 7.28132 92.701 142.8
85 1.2124 84.2199 124.927
86 171.577 116.113 111.736
87 132.576 134.268 150.533
88 131.187 138.478 150.327
89 126.012 127.295 154.661
90 143.296 129.432 126.887
91 38.7221 59.7953 75.1527
92 40.8308 52.0255 37.4291
93 9.43212 80.057 70.9762
94 -2.00604 83.8333 66.5182
95 31.1203 86.2634 72.1461
96 35.9234 73.2557 48.0913
97 70.9848 92.307 104.404
98 87.6102 92.3999 126.743
99 94.9185 63.7291 113.849
100 55.9399 63.0116 91.1267
ITEM: TIMESTEP
4000
ITEM: NUMBER OF ATOMS
100
ITEM: BOX BOUNDS pp pp pp
0.0000000000000000e+00 1.6064779999999999e+02
0.0000000000000000e+00 1.6064779999999999e+02
0.0000000000000000e+00 1.6064779999999999e+02
ITEM: ATOMS id xu yu zu
1 126.021 98.8712 104.034
2 138.595 93.3594 79.3266
3 151.51 72.0898 75.4269
4 148.12 89.2079 63.6842
5 135.224 76.6794 81.9231
6 147.746 81.8332 81.8669
7 127.16 123.552 70.4236
8 114.173 105.643 70.301
9 139.267 116.942 51.2508
10 76.2958 129.848 19.8625
11 88.6053 137.781 -18.855
12 87.0812 160.031 -19.7074
13 73.3725 113.647 4.62103
14 78.9 151.145 40.828
15 75.3605 126.292 21.1554
16 65.4866 127.62 -12.5311
17 77.7275 142.012 -10.5003
18 122.558 -4.58563 30.0002
19 74.3234 38.8193 148.439
20 44.3022 82.8018 115.975
21 43.4394 50.2884 155.391
22 47.3109 72.4461 129.269
23 37.4304 57.7561 156.23
24 46.6926 48.2377 154.799
25 76.8587 62.7466 140.704
26 55.6313 72.5011 120.495
27 44.452 70.0215 129.326
28 17.8709 87.1221 79.3651
29 -11.6964 84.3615 84.6335
30 73.7478 51.4929 33.6654
31 159.867 66.1491 84.6983
32 125.264 20.3678 95.6641
33 155.399 69.882 120.224
34 130.465 53.0277 91.4759
35 106.223 59.0257 123.689
36 133.35 67.4075 131.897
37 136.751 42.6514 87.2048
38 146.783 44.3321 113.141
39 19.2328 87.0151 15.3252
40 70.8267 82.8193 62.8734
41 96.4532 16.4737 41.7271
42 18.215 11.4178 29.8396
43 25.4307 28.9751 29.2951
44 38.0051 16.7145 14.1063
45 23.7146 -35.0012 38.1193
46 10.0454 13.0502 12.3348
47 9.46674 -32.6607 1.60494
48 33.0253 -13.4616 56.4828
49 45.6347 31.4393 27.357
50 10.4793 -17.7741 36.1804
51 46.5778 -16.486 28.4784
52 29.1546 5.11596 42.3309
53 47.0039 97.3396 145.79
54 49.2954 112.539 134.147
55 77.1224 -0.0604969 101.766
56 62.719 13.6785 82.92
57 79.5371 -13.4503 74.1992
58 -2.40601 66.5804 104.066
59 15.7377 146.276 80.0027
60 -8.49548 131.817 88.7002
61 125.387 69.9572 149.155
62 9.17413 150.35 2.73563
63 48.0309 130.626 15.092
64 32.2528 138.722 -17.0738
65 63.3134 -0.173297 13.9648
66 49.5969 140.555 66.4211
67 61.9722 119.012 50.3644
68 81.9814 132.397 58.4685
69 84.6029 21.1367 81.1099
70 139.881 -5.33092 61.834
71 97.884 9.68652 105.122
72 118.71 8.72517 97.0083
73 98.2765 -29.4447 86.1159
74 87.9994 -7.5855 88.7771
75 117.315 -5.49847 86.9321
76 113.2 70.7641 -17.6004
77 99.0243 56.5878 9.18287
78 15.5723 88.5357 131.234
79 2.81859 102.484 129.245
80 11.8516 97.5975 106.922
81 0.502605 86.9736 124.217
82 13.2401 95.2507 122.539
83 6.67768 71.228 151.767
84 8.18649 90.2243 140.27
85 1.99773 84.0934 126.409
86 171.509 114.1 109.602
87 131.288 133.245 149.381
88 133.304 137.479 150.145
89 126.344 128.753 153.537
90 142.085 129.406 126.02
91 39.7027 60.7792 74.3173
92 41.3155 50.3074 38.4472
93 10.1499 81.1319 71.134
94 -1.12709 82.17 64.3059
95 29.2478 88.3345 71.9464
96 37.9467 74.9172 47.5084
97 71.4227 90.1232 106.772
98 89.7758 94.6142 126.943
99 94.3235 64.3297 112.901
100 57.4045 61.4105 92.4717
ITEM: TIMESTEP
5000
ITEM: NUMBER OF ATOMS
100
ITEM: BOX BOUNDS pp pp pp
0.0000000000000000e+00 1.6064779999999999e+02
0.0000000000000000e+00 1.6064779999999999e+02
0.0000000000000000e+00 1.6064779999999999e+02
ITEM: ATOMS id xu yu zu
1 122.714 100.766 104.225
2 140.072 91.4827 78.118
3 149.997 69.4376 72.7139
4 148.682 87.996 61.2201
5 138.189 74.872 80.759
6 146.97 80.1677 81.4501
7 125.764 122.977 70.4314
8 111.633 105.913 70.8034
9 136.448 114.842 51.557
10 77.9827 128.635 19.0919
11 88.237 138.301 -18.4029
12 85.5855 159.554 -16.7435
13 75.1293 113.946 7.43749
14 76.814 151.087 43.3203
15 75.0729 127.716 22.6189
16 64.954 129.519 -13.7749
17 78.4687 142.821 -9.89383
18 124.764 -4.99802 30.9279
19 72.0055 42.0498 151.083
20 43.4502 82.5715 115.082
21 42.9092 47.2949 152.837
22 49.0698 74.0854 131.876
23 37.9839 58.0531 157.416
24 46.0831 45.2156 153.483
25 77.7668 62.6923 138.634
26 57.2809 73.4797 119.227
27 45.5656 71.939 132.572
28 19.3497 84.6003 76.9914
29 -15.0682 84.88 81.5788
30 72.6829 54.7087 32.5692
31 159.099 68.3542 82.1679
32 122.463 20.7193 92.9416
33 155.098 67.0666 120.939
34 130.291 51.3234 93.4088
35 107.512 56.3438 126.35
36 132.778 69.463 129.953
37 134.757 45.831 88.6596
38 146.592 43.2887 112.127
39 20.6921 84.2199 18.2205
40 69.2784 81.5262 64.6483
41 96.6196 17.467 38.6361
42 17.9983 9.31637 28.2819
43 26.1154 28.6443 26.6329
44 40.4581 15.6358 16.7072
45 26.1471 -37.5683 36.9178
46 8.81429 16.2769 14.7629
47 9.48788 -35.3209 1.84024
48 34.3787 -14.4454 58.9345
49 48.0533 31.1921 29.5669
50 9.64934 -17.6385 38.9005
51 48.2604 -14.735 30.0854
52 27.1101 7.81474 44.0616
53 48.5344 99.9876 147.229
54 51.196 112.511 136.405
55 75.9519 -1.79121 99.6436
56 62.0204 14.1084 85.1376
57 80.588 -13.6385 76.0031
58 -3.71645 66.9724 107.054
59 15.1431 144.371 80.096
60 -6.64439 133.137 90.1523
61 122.697 71.3723 151.382
62 9.62121 153.013 1.3852
63 45.2164 130.385 15.0733
64 29.9958 140.861 -20.0519
65 63.8388 2.46101 14.1645
66 51.2113 141.935 68.2843
67 62.7116 121.918 48.0109
68 80.0303 135.143 59.8865
69 81.9796 22.6924 79.3334
70 137.124 -4.50893 61.7099
71 97.5054 8.2097 105.991
72 117.811 6.96952 95.6729
73 100.087 -31.05 85.7762
74 85.4204 -8.70088 86.5257
75 118.97 -6.13669 85.512
76 115.834 67.675 -20.2186
77 96.9721 56.641 7.22025
78 14.4091 87.1047 133.337
79 3.9787 105.314 127.905
80 12.8466 100.162 104.276
81 -0.801577 86.5856 127.39
82 15.2911 93.3204 121.059
83 9.70007 73.9658 153.544
84 9.32703 87.1187 137.092
85 2.59893 84.6053 127.773
86 171.423 111.576 106.927
87 130.044 133.053 148.15
88 135.539 135.096 149.748
89 126.807 130.62 152.085
90 140.567 129.374 124.933
91 40.9321 62.0128 73.27
92 41.9232 48.1535 39.7234
93 11.0501 82.4796 71.332
94 -0.0252058 80.0848 61.5325
95 26.9003 90.931 71.6959
96 40.4833 77.0001 46.7777
97 71.9717 87.3855 109.741
98 92.4908 97.3901 127.193
99 93.5775 65.0826 111.714
100 59.2406 59.4032 94.1579
ITEM: TIMESTEP
6000
ITEM: NUMBER OF ATOMS
100
ITEM: BOX BOUNDS pp pp pp
0.0000000000000000e+00 1.6064779999999999e+02
0.0000000000000000e+00 1.6064779999999999e+02
0.0000000000000000e+00 1.6064779999999999e+02
ITEM: ATOMS id xu yu zu
1 118.848 102.981 104.447
2 141.821 89.2331 76.7262
3 148.228 66.3378 69.5431
4 149.34 86.5795 58.3401
5 141.663 72.7656 79.3997
6 145.881 79.2222 81.158
7 124.133 122.304 70.4406
8 108.664 106.229 71.3906
9 133.155 112.389 51.9149
10 79.348 127.021 18.9264
11 87.8066 138.909 -17.8745
12 83.8374 158.996 -13.2793
13 77.1825 114.296 10.7293
14 74.376 151.018 46.2333
15 75.3431 129.578 23.5944
16 64.3316 131.738 -15.2286
17 79.3349 143.766 -9.18504
18 127.342 -5.48001 32.0121
19 69.2964 45.8255 154.173
20 42.4546 82.3022 114.038
21 42.4919 43.6617 149.93
22 50.7392 75.7321 134.974
23 38.6315 58.3993 158.803
24 45.1676 41.8188 151.865
25 78.8282 62.6287 136.215
26 59.209 74.6234 117.744
27 47.2535 74.4493 136.314
28 21.0718 81.6521 74.2135
29 -18.8559 84.5351 77.7917
30 71.4383 58.4673 31.288
31 158.202 70.9315 79.2106
32 119.189 21.1302 89.7595
33 154.746 63.776 121.773
34 130.12 49.3056 95.6209
35 109.018 53.2093 129.459
36 132.11 71.8655 127.682
37 132.395 49.5731 90.4071
38 146.369 42.0693 110.943
39 22.3977 80.953 21.6044
40 67.4687 80.0149 66.7227
41 96.814 18.628 35.0235
42 17.7451 6.86034 26.4612
43 26.9157 28.2576 23.5214
44 43.3251 14.375 19.747
45 28.9901 -40.5686 35.5135
46 7.37539 20.0481 17.6007
47 9.51259 -38.4301 2.11525
48 35.9605 -15.5951 61.8
49 50.8801 30.9031 32.1497
50 8.67935 -17.4799 42.0797
51 50.227 -12.6886 31.9637
52 24.7205 10.969 46.0843
53 50.3231 103.083 148.911
54 53.4174 112.479 139.045
55 74.5839 -3.81399 97.1635
56 61.204 14.6107 87.7294
57 81.8172 -13.8563 78.1152
58 -5.24805 67.4306 110.547
59 14.4483 142.144 80.2051
60 -4.4809 134.68 91.8495
61 119.553 73.0262 153.986
62 10.1437 156.125 -0.193117
63 41.9269 130.103 15.0516
64 27.3579 143.361 -23.5326
65 64.453 5.53989 14.3979
66 53.0982 143.547 70.4618
67 63.5758 125.316 45.2603
68 77.7501 138.352 61.5438
69 78.9137 24.5107 77.2572
70 133.902 -3.54821 61.5648
71 97.0628 6.48364 107.007
72 116.759 4.91757 94.1122
73 102.204 -32.9262 85.3791
74 82.4051 -10.0066 83.8907
75 120.905 -6.88261 83.8522
76 118.913 64.0647 -23.2785
77 94.5735 56.7031 4.92641
78 13.4794 85.6658 135.981
79 5.3346 108.622 126.339
80 14.0075 103.165 101.186
81 -1.29134 85.5628 131.182
82 17.6884 91.0643 119.328
83 13.2325 77.1656 155.621
84 10.2282 83.2554 133.19
85 2.26912 85.7729 129.286
86 171.325 108.622 103.799
87 128.761 132.871 146.858
88 137.834 132.097 149.191
89 127.494 132.975 150.334
90 138.793 129.336 123.663
91 42.3688 63.4545 72.046
92 42.6335 45.6362 41.215
93 12.1083 84.0555 71.567
94 1.26264 77.6478 58.291
95 24.1567 93.9655 71.4032
96 43.4479 79.4346 45.9236
97 72.6134 84.1859 113.211
98 95.6638 100.635 127.486
99 92.7057 65.9626 110.326
100 61.3866 57.0572 96.1286
ITEM: TIMESTEP
7000
ITEM: NUMBER OF ATOMS
100
ITEM: BOX BOUNDS pp pp pp
0.0000000000000000e+00 1.6064779999999999e+02
0.0000000000000000e+00 1.6064779999999999e+02
0.0000000000000000e+00 1.6064779999999999e+02
ITEM: ATOMS id xu yu zu
1 114.502 105.471 104.698
2 143.493 85.8311 75.2577
3 146.239 62.8537 65.9792
4 150.078 84.9874 55.1031
5 145.587 70.4344 77.8822
6 144.571 78.2458 80.779
7 122.299 121.549 70.451
8 105.326 106.583 72.0506
9 129.453 109.631 52.3171
10 80.724 125.255 18.9279
11 87.3227 139.593 -17.2806
12 81.8727 158.37 -9.38561
13 79.4903 114.689 14.4291
14 71.6358 150.941 49.5075
15 75.8054 131.622 24.5034
16 63.632 134.233 -16.8626
17 80.3086 144.828 -8.38838
18 130.24 -6.02174 33.2307
19 66.2515 50.0692 157.646
20 41.3354 81.9996 112.866
21 42.1795 39.4699 146.781
22 52.5023 77.6415 138.575
23 39.3594 58.7885 160.361
24 43.9821 38.1092 149.929
25 80.0212 62.5573 133.497
26 61.3761 75.9088 116.077
27 49.264 77.2122 140.4
28 22.9979 78.3404 71.088
29 -22.7528 84.8983 73.4795
30 70.0394 62.6918 29.8479
31 157.193 73.8282 75.8866
32 115.509 21.592 86.183
33 154.35 60.0776 122.712
34 130.039 47.0603 97.8459
35 110.711 49.6861 132.954
36 131.359 74.5658 125.129
37 129.63 53.7565 92.6324
38 146.118 40.6987 109.611
39 24.3147 77.281 25.4077
40 65.4347 78.3161 69.0543
41 97.0326 19.933 30.963
42 17.4606 4.09985 24.4149
43 27.8151 27.823 20.0243
44 46.5475 12.9579 23.1636
45 32.1855 -43.9409 33.9351
46 5.75811 24.2869 20.7904
47 9.54036 -41.9246 2.42435
48 37.7384 -16.8873 65.0206
49 54.0573 30.5784 35.0528
50 7.58911 -17.3018 45.653
51 52.4374 -10.3884 34.0747
52 22.0347 14.5142 48.3578
53 52.3336 106.561 150.801
54 55.9141 112.442 142.013
55 73.0464 -6.08754 94.3759
56 60.2864 15.1754 90.6425
57 83.0592 -13.8571 80.7202
58 -6.96952 67.9455 114.472
59 13.6673 139.64 80.3277
60 -2.04921 136.415 93.757
61 116.02 74.8852 156.912
62 10.731 159.624 -1.9671
63 38.2295 129.786 15.0271
64 24.3929 146.172 -27.4448
65 65.1432 9.00046 14.6603
66 55.219 145.359 72.9094
67 64.5472 129.134 42.1687
68 75.1871 141.959 63.4066
69 75.4678 26.5545 74.9236
70 130.28 -2.46839 61.4017
71 96.5654 4.54361 108.148
72 115.578 2.61126 92.3579
73 104.582 -35.0349 84.9328
74 79.1555 -11.7183 80.698
75 123.08 -7.721 81.9866
76 122.373 60.0068 -26.7179
77 91.8775 56.773 2.3482
78 13.4373 84.3732 138.914
79 6.85859 112.34 124.58
80 15.1181 106.659 97.8393
81 -0.561809 84.508 134.743
82 20.3828 88.5286 117.384
83 17.2029 80.7621 157.956
84 10.2284 78.5915 128.839
85 0.628167 86.9877 131.692
86 171.409 105.182 100.156
87 128.117 132.849 143.744
88 140.379 128.723 148.558
89 127.503 135.442 150.035
90 136.798 129.294 122.236
91 43.9837 65.075 70.6702
92 43.4319 42.8068 42.8915
93 13.3072 85.8248 71.8344
94 2.71014 74.9086 54.6477
95 21.0729 97.3763 71.0742
96 46.78 82.1708 44.9637
97 73.3346 80.5895 117.11
98 99.2303 104.281 127.815
99 91.7258 66.9517 108.766
100 63.7986 54.4203 98.3436
ITEM: TIMESTEP
8000
ITEM: NUMBER OF ATOMS
100
ITEM: BOX BOUNDS pp pp pp
0.0000000000000000e+00 1.6064779999999999e+02
0.0000000000000000e+00 1.6064779999999999e+02
0.0000000000000000e+00 1.6064779999999999e+02
ITEM: ATOMS id xu yu zu
1 109.963 108.072 104.959
2 144.794 81.9099 73.6557
3 144.162 59.2141 62.2562
4 150.85 83.3242 51.7216
5 149.687 68.0284 76.3073
6 143.197 77.2102 80.3612
7 120.384 120.759 70.4618
8 101.84 106.954 72.74
9 125.586 106.75 52.7373
10 82.1514 123.417 18.9398
11 86.8173 140.307 -16.6601
12 79.8201 157.715 -5.31807
13 81.9013 115.103 18.2951
14 68.7731 150.861 52.9278
15 76.2982 133.747 25.4417
16 62.9011 136.838 -18.5695
17 81.3257 145.937 -7.55615
18 133.267 -6.58768 34.5037
19 63.0706 54.5024 161.275
20 40.1663 81.6835 111.64
21 42.0568 34.9418 143.775
22 54.4973 79.5834 142.196
23 40.1197 59.195 161.989
24 42.5399 34.3829 147.624
25 81.2674 62.4828 130.656
26 63.6399 77.2517 114.336
27 51.211 80.1514 144.811
28 25.0087 74.8815 67.8227
29 -26.3749 85.6312 69.0543
30 68.578 67.105 28.3436
31 156.139 76.8543 72.4141
32 111.665 22.0744 82.4468
33 153.937 56.2139 123.692
34 129.965 44.7544 100.108
35 112.479 46.0057 136.605
36 130.574 77.3868 122.462
37 126.73 58.087 95.0194
38 145.855 39.2668 108.22
39 26.3173 73.4451 29.3809
40 63.3099 76.5416 71.49
41 97.261 21.2962 26.7212
42 17.1633 1.21608 22.2772
43 28.7548 27.3691 16.3709
44 49.9139 11.4775 26.7329
45 35.5237 -47.4639 32.2863
46 4.0686 28.7149 24.1225
47 9.56938 -45.5753 2.74725
48 39.5956 -18.2373 68.3851
49 57.3764 30.2391 38.0855
50 6.45017 -17.1156 49.3859
51 54.7464 -7.98552 36.28
52 19.2289 18.2178 50.7328
53 54.4352 110.196 152.773
54 58.521 112.402 145.115
55 71.4401 -8.46262 91.4638
56 59.3278 15.7653 93.6858
57 83.6105 -13.3129 83.6256
58 -8.76786 68.4835 118.573
59 12.8514 137.026 80.4557
60 0.491074 138.227 95.7497
61 112.328 76.8272 159.968
62 11.3446 163.278 -3.82031
63 34.3671 129.454 15.0016
64 21.2956 149.107 -31.5317
65 65.8643 12.6156 14.9344
66 57.4345 147.252 75.4662
67 65.5619 133.123 38.939
68 72.5097 145.727 65.3526
69 71.8679 28.6894 72.4858
70 126.497 -1.34035 61.2313
71 96.0458 2.51694 109.341
72 114.344 0.201943 90.5254
73 107.067 -37.2378 84.4665
74 76.5071 -14.0513 77.1786
75 125.352 -8.59684 80.0377
76 125.987 55.7677 -30.3108
77 89.0611 56.846 -0.345143
78 13.382 83.0116 141.961
79 8.45064 116.224 122.741
80 15.8037 110.277 94.6121
81 0.632639 84.3394 137.322
82 23.1975 85.8796 115.352
83 21.3506 84.5192 160.395
84 10.2382 73.7316 124.309
85 -1.51666 87.3222 135.347
86 171.971 101.62 96.0814
87 127.393 132.899 140.758
88 143.036 125.198 147.896
89 127.565 137.947 149.455
90 134.715 129.25 120.744
91 45.6707 66.7678 69.233
92 44.2659 39.851 44.6429
93 14.5611 87.6724 72.1139
94 4.22228 72.047 50.8417
95 17.8514 100.939 70.7304
96 50.2609 85.0292 43.9609
97 74.088 76.8326 121.184
98 102.956 108.091 128.158
99 90.7021 67.985 107.136
100 66.3184 51.6657 100.657
ITEM: TIMESTEP
9000
ITEM: NUMBER OF ATOMS
100
ITEM: BOX BOUNDS pp pp pp
0.0000000000000000e+00 1.6064779999999999e+02
0.0000000000000000e+00 1.6064779999999999e+02
0.0000000000000000e+00 1.6064779999999999e+02
ITEM: ATOMS id xu yu zu
1 105.421 110.674 105.221
2 146.082 77.9711 72.0712
3 142.084 55.572 58.5306
4 151.622 81.6599 48.3378
5 153.789 65.6235 74.7324
6 141.83 76.1868 79.9194
7 118.467 119.969 70.4726
8 98.3518 107.324 73.4299
9 121.716 103.867 53.1577
10 83.5799 121.537 18.955
11 86.3115 141.021 -16.0393
12 77.7662 157.06 -1.24782
13 84.3136 115.557 22.1605
14 65.9086 150.78 56.3504
15 76.7914 135.873 26.3804
16 62.1698 139.446 -20.2775
17 82.3436 147.047 -6.72337
18 136.296 -7.15399 35.7776
19 59.8875 58.9386 164.905
20 38.9965 81.3672 110.414
21 41.9734 30.3577 141.196
22 56.0163 81.5818 146.178
23 40.8806 59.6019 163.618
24 41.0575 30.7072 144.886