LAMMPS Description # full

8 atoms
6 bonds
4 angles
2 dihedrals
0 impropers

7 atom types
5 bond types
4 angle types
2 dihedral types
0 improper types

0 6.3777 xlo xhi
0 6.3777 ylo yhi
0 6.3777 zlo zhi

Masses

1 15.0350 # C CH3 n-Butane 83 #
2 14.0270 # C CH2 n-Butane 86 #
3 15.9990 # O OH Alcohol Hydroxyl 104 #
4 1.0080 # H H Alcohol Hydroxyl 105 #
5 14.0270 # C CH2 Ethanol 107 #
6 15.9990 # O O Water (SPCE) 214 #
7 1.0080 # H H Water (SPCE) 215 #

Pair Coeffs

1 0.1750 3.9050
2 0.1180 3.9050
3 0.1700 3.0700
4 0.0000 0.0000
5 0.1180 3.9050
6 0.1554 3.1656
7 0.0000 0.0000

Bond Coeffs

1 260.0000 1.5260
2 260.0000 1.5260
3 553.0000 0.9450
4 386.0000 1.4250
5 527.2000 1.0000

Angle Coeffs

1 63.0000 112.4000
2 55.0000 108.5000
3 80.0000 109.5000
4 37.9500 109.4700

Dihedral Coeffs

1 0.0000 0.0000 4.0000 0.0000
2 0.0000 0.0000 1.0000 0.0000

Atoms

1 1 6 -0.8476 2.5178 0.3391 6.0246
2 1 7 0.4238 2.7924 -0.3987 6.6413
3 1 7 0.4238 2.3974 -0.0256 5.1013
4 2 1 0.0000 -0.9957 2.6607 2.3246
5 2 2 -0.0000 -1.0495 2.7697 0.8035
6 2 5 0.2650 -0.2322 3.9453 0.2754
7 2 3 -0.7000 0.7186 4.3436 1.2592
8 2 4 0.4350 0.2785 4.8780 1.9025

Bonds

1 5 1 2
2 5 1 3
3 1 4 5
4 2 5 6
5 4 6 7
6 3 7 8

Angles

1 4 2 1 3
2 1 4 5 6
3 3 5 6 7
4 2 6 7 8

Dihedrals

1 1 4 5 6 7
2 2 5 6 7 8

