LAMMPS (19 Nov 2024)
  using 1 OpenMP thread(s) per MPI task
units real
atom_style full
bond_style harmonic
angle_style harmonic
dihedral_style opls
improper_style cvff
special_bonds lj/coul 0 0 0.5
pair_style lj/cut 11.0
pair_modify mix geometric
read_data mol_bldr.data
Reading data file ...
  orthogonal box = (0 0 0) to (46.1988 44.3958 47.2029)
  1 by 1 by 1 MPI processor grid
  reading atoms ...
  4 atoms
  scanning bonds ...
  1 = max bonds/atom
  scanning angles ...
  1 = max angles/atom
  scanning dihedrals ...
  1 = max dihedrals/atom
  orthogonal box = (0 0 0) to (46.1988 44.3958 47.2029)
  1 by 1 by 1 MPI processor grid
  reading bonds ...
  3 bonds
  reading angles ...
  2 angles
  reading dihedrals ...
  1 dihedrals
Finding 1-2 1-3 1-4 neighbors ...
  special bond factors lj:    0        0        0.5     
  special bond factors coul:  0        0        0.5     
     2 = max # of 1-2 neighbors
     1 = max # of 1-3 neighbors
     2 = max # of 1-4 neighbors
     3 = max # of special neighbors
  special bonds CPU = 0.000 seconds
  read_data CPU = 0.002 seconds

dump 1 all custom 1000 mol_bldr.custom.gz id xu yu zu
dump_modify 1 sort id
min_style fire
minimize 1.0e-6 1.0e-8 1000000 10000000
Generated 1 of 1 mixed pair_coeff terms from geometric mixing rule
Neighbor list info ...
  update: every = 1 steps, delay = 0 steps, check = yes
  max neighbors/atom: 2000, page size: 100000
  master list distance cutoff = 13
  ghost atom cutoff = 13
  binsize = 6.5, bins = 8 7 8
  1 neighbor lists, perpetual/occasional/extra = 1 0 0
  (1) pair lj/cut, perpetual
      attributes: half, newton on
      pair build: half/bin/newton
      stencil: half/bin/3d
      bin: standard
  Parameters for fire:
    dmax  delaystep dtgrow dtshrink alpha0 alphashrink tmax tmin   integrator   halfstepback   abcfire  
     0.1     20      1.1     0.5     0.25     0.99      10  0.02 eulerimplicit      yes          no     
Per MPI rank memory allocation (min/avg/max) = 6.818 | 6.818 | 6.818 Mbytes
   Step          Temp          E_pair         E_mol          TotEng         Press     
         0   0              0.0067185228   0.17336108     0.1800796      0.52714509   
       102   2.0217758e-07  0.0012128206   0.0013440279   0.0025568503  -1.3921048e-06
Loop time of 0.000145729 on 1 procs for 102 steps with 4 atoms

97.4% CPU use with 1 MPI tasks x 1 OpenMP threads

Minimization stats:
  Stopping criterion = energy tolerance
  Energy initial, next-to-last, final = 
     0.180079604055927 0.00255684869572158 0.00255684850449278
  Force two-norm initial, final = 3.5920315 0.00048676746
  Force max component initial, final = 1.6609837 0.00022393683
  Final line search alpha, max atom move = 0 0
  Iterations, force evaluations = 102 107

MPI task timing breakdown:
Section |  min time  |  avg time  |  max time  |%varavg| %total
---------------------------------------------------------------
Pair    | 1.1636e-05 | 1.1636e-05 | 1.1636e-05 |   0.0 |  7.98
Bond    | 4.1103e-05 | 4.1103e-05 | 4.1103e-05 |   0.0 | 28.21
Neigh   | 0          | 0          | 0          |   0.0 |  0.00
Comm    | 2.8014e-05 | 2.8014e-05 | 2.8014e-05 |   0.0 | 19.22
Output  | 0          | 0          | 0          |   0.0 |  0.00
Modify  | 0          | 0          | 0          |   0.0 |  0.00
Other   |            | 6.498e-05  |            |       | 44.59

Nlocal:              4 ave           4 max           4 min
Histogram: 1 0 0 0 0 0 0 0 0 0
Nghost:             28 ave          28 max          28 min
Histogram: 1 0 0 0 0 0 0 0 0 0
Neighs:              1 ave           1 max           1 min
Histogram: 1 0 0 0 0 0 0 0 0 0

Total # of neighbors = 1
Ave neighs/atom = 0.25
Ave special neighs/atom = 3
Neighbor list builds = 0
Dangerous builds = 0
run 0
WARNING: No fixes with time integration, atoms won't move (src/verlet.cpp:60)
Generated 1 of 1 mixed pair_coeff terms from geometric mixing rule
Per MPI rank memory allocation (min/avg/max) = 8.068 | 8.068 | 8.068 Mbytes
   Step          Temp          E_pair         E_mol          TotEng         Press     
       102   2.0217758e-07  0.0012128206   0.0013440279   0.0025568503  -1.3921048e-06
Loop time of 9.13e-07 on 1 procs for 0 steps with 4 atoms

109.5% CPU use with 1 MPI tasks x 1 OpenMP threads

MPI task timing breakdown:
Section |  min time  |  avg time  |  max time  |%varavg| %total
---------------------------------------------------------------
Pair    | 0          | 0          | 0          |   0.0 |  0.00
Bond    | 0          | 0          | 0          |   0.0 |  0.00
Neigh   | 0          | 0          | 0          |   0.0 |  0.00
Comm    | 0          | 0          | 0          |   0.0 |  0.00
Output  | 0          | 0          | 0          |   0.0 |  0.00
Modify  | 0          | 0          | 0          |   0.0 |  0.00
Other   |            | 9.13e-07   |            |       |100.00

Nlocal:              4 ave           4 max           4 min
Histogram: 1 0 0 0 0 0 0 0 0 0
Nghost:             28 ave          28 max          28 min
Histogram: 1 0 0 0 0 0 0 0 0 0
Neighs:              1 ave           1 max           1 min
Histogram: 1 0 0 0 0 0 0 0 0 0

Total # of neighbors = 1
Ave neighs/atom = 0.25
Ave special neighs/atom = 3
Neighbor list builds = 0
Dangerous builds = 0
quit 0
