LAMMPS Description # full

9 atoms
0 bonds
0 angles
0 dihedrals
0 impropers

4 atom types
0 bond types
0 angle types
0 dihedral types
0 improper types

0 11.6634 xlo xhi
0 11.6634 ylo yhi
0 11.6634 zlo zhi

Masses

1 40.0780 # Ca Ca+2 Calcium Ion 203 #
2 87.6200 # Sr Sr+2 Strontium Ion 204 #
3 137.3270 # Ba Ba+2 Barium Ion 205 #
4 35.4530 # Cl Cl- Chloride Ion 207 #

Pair Coeffs

1 0.4497 2.4120
2 0.1182 3.1027
3 0.0471 3.8166
4 0.1180 4.4172

Atoms

1 1 1 2.0000 6.5190 -1.7364 7.9205
2 2 2 2.0000 5.4194 -1.2018 2.9266
3 3 3 2.0000 5.7958 0.0976 4.3155
4 4 4 -1.0000 0.0785 2.6423 1.2746
5 5 4 -1.0000 6.2709 5.3618 6.3036
6 6 4 -1.0000 7.5808 3.6796 -1.9229
7 7 4 -1.0000 6.1993 1.1555 -1.5537
8 8 4 -1.0000 4.9594 -1.4637 6.6565
9 9 4 -1.0000 1.9719 0.3926 3.1363

